nqpoint: 200    
npath: 4      
segment_nqpoint:
- 50
- 50
- 50
- 50
labels:
- [ 'G', 'X' ]
- [ 'X', 'U|K' ]
- [ 'U|K', 'G' ]
- [ 'G', 'L' ]
reciprocal_lattice:
- [  -0.19718595,   0.19718595,   0.19718595 ] # a*
- [   0.19718595,  -0.19718595,   0.19718595 ] # b*
- [   0.19718595,   0.19718595,  -0.19718595 ] # c*
natom: 3      
lattice:
- [     0.000000000000000,     2.535677595000000,     2.535677595000000 ] # a
- [     2.535677595000000,     0.000000000000000,     2.535677595000000 ] # b
- [     2.535677595000000,     2.535677595000000,     0.000000000000000 ] # c
points:
- symbol: Zr # 1
  coordinates: [  0.000000000000000,  0.000000000000000,  0.000000000000000 ]
  mass: 91.224000
- symbol: O  # 2
  coordinates: [  0.250000000000000,  0.250000000000000,  0.250000000000000 ]
  mass: 15.999000
- symbol: O  # 3
  coordinates: [  0.750000000000000,  0.750000000000000,  0.750000000000000 ]
  mass: 15.999000
supercell_matrix:
- [   12,   -4,   -4 ]
- [   -4,   12,   -4 ]
- [   -4,   -4,   12 ]

phonon:
- q-position: [    0.0000000,    0.0000000,    0.0000000 ]
  distance:    0.0000000
  band:
  - # 1
    frequency:   -0.0150055785
  - # 2
    frequency:   -0.0150055785
  - # 3
    frequency:   -0.0150055785
  - # 4
    frequency:    7.3081642031
  - # 5
    frequency:    7.3081642031
  - # 6
    frequency:    7.3081642031
  - # 7
    frequency:   16.8282109297
  - # 8
    frequency:   16.8282109297
  - # 9
    frequency:   16.8282109297

- q-position: [    0.0102041,    0.0000000,    0.0102041 ]
  distance:    0.0040242
  band:
  - # 1
    frequency:    0.1357484508
  - # 2
    frequency:    0.1357484508
  - # 3
    frequency:    0.4461489736
  - # 4
    frequency:    7.3075673287
  - # 5
    frequency:    7.3075673287
  - # 6
    frequency:    7.3745031896
  - # 7
    frequency:   16.8228427156
  - # 8
    frequency:   16.8280925620
  - # 9
    frequency:   16.8280925620

- q-position: [    0.0204082,    0.0000000,    0.0204082 ]
  distance:    0.0080484
  band:
  - # 1
    frequency:    0.2726649764
  - # 2
    frequency:    0.2726649764
  - # 3
    frequency:    0.8891265025
  - # 4
    frequency:    7.3058006897
  - # 5
    frequency:    7.3058006897
  - # 6
    frequency:    7.5695697729
  - # 7
    frequency:   16.8066953593
  - # 8
    frequency:   16.8277352164
  - # 9
    frequency:   16.8277352164

- q-position: [    0.0306122,    0.0000000,    0.0306122 ]
  distance:    0.0120726
  band:
  - # 1
    frequency:    0.4091555756
  - # 2
    frequency:    0.4091555756
  - # 3
    frequency:    1.3255188795
  - # 4
    frequency:    7.3029360206
  - # 5
    frequency:    7.3029360206
  - # 6
    frequency:    7.8823844573
  - # 7
    frequency:   16.7796413369
  - # 8
    frequency:   16.8271322031
  - # 9
    frequency:   16.8271322031

- q-position: [    0.0408163,    0.0000000,    0.0408163 ]
  distance:    0.0160968
  band:
  - # 1
    frequency:    0.5453455816
  - # 2
    frequency:    0.5453455816
  - # 3
    frequency:    1.7533388066
  - # 4
    frequency:    7.2990921512
  - # 5
    frequency:    7.2990921512
  - # 6
    frequency:    8.2971439673
  - # 7
    frequency:   16.7414701543
  - # 8
    frequency:   16.8262724946
  - # 9
    frequency:   16.8262724946

- q-position: [    0.0510204,    0.0000000,    0.0510204 ]
  distance:    0.0201210
  band:
  - # 1
    frequency:    0.6811842973
  - # 2
    frequency:    0.6811842973
  - # 3
    frequency:    2.1713903066
  - # 4
    frequency:    7.2944339178
  - # 5
    frequency:    7.2944339178
  - # 6
    frequency:    8.7958387333
  - # 7
    frequency:   16.6918913632
  - # 8
    frequency:   16.8251409066
  - # 9
    frequency:   16.8251409066

- q-position: [    0.0612245,    0.0000000,    0.0612245 ]
  distance:    0.0241452
  band:
  - # 1
    frequency:    0.8165808208
  - # 2
    frequency:    0.8165808208
  - # 3
    frequency:    2.5790349646
  - # 4
    frequency:    7.2891706417
  - # 5
    frequency:    7.2891706417
  - # 6
    frequency:    9.3604517308
  - # 7
    frequency:   16.6305386783
  - # 8
    frequency:   16.8237183438
  - # 9
    frequency:   16.8237183438

- q-position: [    0.0714286,    0.0000000,    0.0714286 ]
  distance:    0.0281694
  band:
  - # 1
    frequency:    0.9514207123
  - # 2
    frequency:    0.9514207123
  - # 3
    frequency:    2.9759001259
  - # 4
    frequency:    7.2835541754
  - # 5
    frequency:    7.2835541754
  - # 6
    frequency:    9.9743609546
  - # 7
    frequency:   16.5569750957
  - # 8
    frequency:   16.8219821056
  - # 9
    frequency:   16.8219821056

- q-position: [    0.0816327,    0.0000000,    0.0816327 ]
  distance:    0.0321936
  band:
  - # 1
    frequency:    1.0855679846
  - # 2
    frequency:    1.0855679846
  - # 3
    frequency:    3.3616719625
  - # 4
    frequency:    7.2778765080
  - # 5
    frequency:    7.2778765080
  - # 6
    frequency:   10.6229847681
  - # 7
    frequency:   16.4706988901
  - # 8
    frequency:   16.8199062454
  - # 9
    frequency:   16.8199062454

- q-position: [    0.0918367,    0.0000000,    0.0918367 ]
  distance:    0.0362178
  band:
  - # 1
    frequency:    1.2188640061
  - # 2
    frequency:    1.2188640061
  - # 3
    frequency:    3.7359943735
  - # 4
    frequency:    7.2724669162
  - # 5
    frequency:    7.2724669162
  - # 6
    frequency:   11.2939028720
  - # 7
    frequency:   16.3711503456
  - # 8
    frequency:   16.8174619746
  - # 9
    frequency:   16.8174619746

- q-position: [    0.1020408,    0.0000000,    0.1020408 ]
  distance:    0.0402420
  band:
  - # 1
    frequency:    1.3511257108
  - # 2
    frequency:    1.3511257108
  - # 3
    frequency:    4.0984449820
  - # 4
    frequency:    7.2676886287
  - # 5
    frequency:    7.2676886287
  - # 6
    frequency:   11.9766940744
  - # 7
    frequency:   16.2577190634
  - # 8
    frequency:   16.8146181069
  - # 9
    frequency:   16.8146181069

- q-position: [    0.1122449,    0.0000000,    0.1122449 ]
  distance:    0.0442662
  band:
  - # 1
    frequency:    1.4821438724
  - # 2
    frequency:    1.4821438724
  - # 3
    frequency:    4.4485526470
  - # 4
    frequency:    7.2639349574
  - # 5
    frequency:    7.2639349574
  - # 6
    frequency:   12.6626623396
  - # 7
    frequency:   16.1297516740
  - # 8
    frequency:   16.8113415346
  - # 9
    frequency:   16.8113415346

- q-position: [    0.1224490,    0.0000000,    0.1224490 ]
  distance:    0.0482904
  band:
  - # 1
    frequency:    1.6116818057
  - # 2
    frequency:    1.6116818057
  - # 3
    frequency:    4.7858310877
  - # 4
    frequency:    7.2616248251
  - # 5
    frequency:    7.2616248251
  - # 6
    frequency:   13.3445481606
  - # 7
    frequency:   15.9865597736
  - # 8
    frequency:   16.8075977335
  - # 9
    frequency:   16.8075977335

- q-position: [    0.1326531,    0.0000000,    0.1326531 ]
  distance:    0.0523146
  band:
  - # 1
    frequency:    1.7394747660
  - # 2
    frequency:    1.7394747660
  - # 3
    frequency:    5.1098147810
  - # 4
    frequency:    7.2611975985
  - # 5
    frequency:    7.2611975985
  - # 6
    frequency:   14.0162697109
  - # 7
    frequency:   15.8274278994
  - # 8
    frequency:   16.8033512916
  - # 9
    frequency:   16.8033512916

- q-position: [    0.1428571,    0.0000000,    0.1428571 ]
  distance:    0.0563388
  band:
  - # 1
    frequency:    1.8652302916
  - # 2
    frequency:    1.8652302916
  - # 3
    frequency:    5.4200911737
  - # 4
    frequency:    7.2631071120
  - # 5
    frequency:    7.2631071120
  - # 6
    frequency:   14.6727082170
  - # 7
    frequency:   15.6516213499
  - # 8
    frequency:   16.7985664611
  - # 9
    frequency:   16.7985664611

- q-position: [    0.1530612,    0.0000000,    0.1530612 ]
  distance:    0.0603630
  band:
  - # 1
    frequency:    1.9886297309
  - # 2
    frequency:    1.9886297309
  - # 3
    frequency:    5.7163274607
  - # 4
    frequency:    7.2678147577
  - # 5
    frequency:    7.2678147577
  - # 6
    frequency:   15.3095374756
  - # 7
    frequency:   15.4583936546
  - # 8
    frequency:   16.7932077327
  - # 9
    frequency:   16.7932077327

- q-position: [    0.1632653,    0.0000000,    0.1632653 ]
  distance:    0.0643872
  band:
  - # 1
    frequency:    2.1093311839
  - # 2
    frequency:    2.1093311839
  - # 3
    frequency:    5.9982920247
  - # 4
    frequency:    7.2757815139
  - # 5
    frequency:    7.2757815139
  - # 6
    frequency:   15.2469934871
  - # 7
    frequency:   15.9230917087
  - # 8
    frequency:   16.7872404337
  - # 9
    frequency:   16.7872404337

- q-position: [    0.1734694,    0.0000000,    0.1734694 ]
  distance:    0.0684115
  band:
  - # 1
    frequency:    2.2269740542
  - # 2
    frequency:    2.2269740542
  - # 3
    frequency:    6.2658712229
  - # 4
    frequency:    7.2874588080
  - # 5
    frequency:    7.2874588080
  - # 6
    frequency:   15.0166708078
  - # 7
    frequency:   16.5102645492
  - # 8
    frequency:   16.7806313546
  - # 9
    frequency:   16.7806313546

- q-position: [    0.1836735,    0.0000000,    0.1836735 ]
  distance:    0.0724357
  band:
  - # 1
    frequency:    2.3411853404
  - # 2
    frequency:    2.3411853404
  - # 3
    frequency:    6.5190822372
  - # 4
    frequency:    7.3032781669
  - # 5
    frequency:    7.3032781669
  - # 6
    frequency:   14.7666820014
  - # 7
    frequency:   16.7733494067
  - # 8
    frequency:   16.7733494067
  - # 9
    frequency:   17.0684324073

- q-position: [    0.1938776,    0.0000000,    0.1938776 ]
  distance:    0.0764599
  band:
  - # 1
    frequency:    2.4515876876
  - # 2
    frequency:    2.4515876876
  - # 3
    frequency:    6.7580825252
  - # 4
    frequency:    7.3236396957
  - # 5
    frequency:    7.3236396957
  - # 6
    frequency:   14.4962937486
  - # 7
    frequency:   16.7653663159
  - # 8
    frequency:   16.7653663159
  - # 9
    frequency:   17.5953965543

- q-position: [    0.2040816,    0.0000000,    0.2040816 ]
  distance:    0.0804841
  band:
  - # 1
    frequency:    2.5578090719
  - # 2
    frequency:    2.5578090719
  - # 3
    frequency:    6.9831761796
  - # 4
    frequency:    7.3488995624
  - # 5
    frequency:    7.3488995624
  - # 6
    frequency:   14.2047853241
  - # 7
    frequency:   16.7566573589
  - # 8
    frequency:   16.7566573589
  - # 9
    frequency:   18.0893394211

- q-position: [    0.2142857,    0.0000000,    0.2142857 ]
  distance:    0.0845083
  band:
  - # 1
    frequency:    2.6594938019
  - # 2
    frequency:    2.6594938019
  - # 3
    frequency:    7.1948172846
  - # 4
    frequency:    7.3793568344
  - # 5
    frequency:    7.3793568344
  - # 6
    frequency:   13.8914489465
  - # 7
    frequency:   16.7472021446
  - # 8
    frequency:   16.7472021446
  - # 9
    frequency:   18.5487916391

- q-position: [    0.2244898,    0.0000000,    0.2244898 ]
  distance:    0.0885325
  band:
  - # 1
    frequency:    2.7563143190
  - # 2
    frequency:    2.7563143190
  - # 3
    frequency:    7.3936101693
  - # 4
    frequency:    7.4152401982
  - # 5
    frequency:    7.4152401982
  - # 6
    frequency:   13.5555877022
  - # 7
    frequency:   16.7369854450
  - # 8
    frequency:   16.7369854450
  - # 9
    frequency:   18.9726071878

- q-position: [    0.2346939,    0.0000000,    0.2346939 ]
  distance:    0.0925567
  band:
  - # 1
    frequency:    2.8479830823
  - # 2
    frequency:    2.8479830823
  - # 3
    frequency:    7.4566952703
  - # 4
    frequency:    7.4566952703
  - # 5
    frequency:    7.5803063076
  - # 6
    frequency:   13.1965104104
  - # 7
    frequency:   16.7259980764
  - # 8
    frequency:   16.7259980764
  - # 9
    frequency:   19.3599446737

- q-position: [    0.2448980,    0.0000000,    0.2448980 ]
  distance:    0.0965809
  band:
  - # 1
    frequency:    2.9342636853
  - # 2
    frequency:    2.9342636853
  - # 3
    frequency:    7.5037733339
  - # 4
    frequency:    7.5037733339
  - # 5
    frequency:    7.7557974962
  - # 6
    frequency:   12.8135225622
  - # 7
    frequency:   16.7142378279
  - # 8
    frequency:   16.7142378279
  - # 9
    frequency:   19.7102532687

- q-position: [    0.2551020,    0.0000000,    0.2551020 ]
  distance:    0.1006051
  band:
  - # 1
    frequency:    3.0149802977
  - # 2
    frequency:    3.0149802977
  - # 3
    frequency:    7.5564223716
  - # 4
    frequency:    7.5564223716
  - # 5
    frequency:    7.9211048610
  - # 6
    frequency:   12.4059121114
  - # 7
    frequency:   16.7017104347
  - # 8
    frequency:   16.7017104347
  - # 9
    frequency:   20.0232622195

- q-position: [    0.2653061,    0.0000000,    0.2653061 ]
  distance:    0.1046293
  band:
  - # 1
    frequency:    3.0900245983
  - # 2
    frequency:    3.0900245983
  - # 3
    frequency:    7.6144811876
  - # 4
    frequency:    7.6144811876
  - # 5
    frequency:    8.0773632094
  - # 6
    frequency:   11.9729283434
  - # 7
    frequency:   16.6884305823
  - # 8
    frequency:   16.6884305823
  - # 9
    frequency:   20.2989731307

- q-position: [    0.2755102,    0.0000000,    0.2755102 ]
  distance:    0.1086535
  band:
  - # 1
    frequency:    3.1593595602
  - # 2
    frequency:    3.1593595602
  - # 3
    frequency:    7.6776772032
  - # 4
    frequency:    7.6776772032
  - # 5
    frequency:    8.2258002532
  - # 6
    frequency:   11.5137511810
  - # 7
    frequency:   16.6744229298
  - # 8
    frequency:   16.6744229298
  - # 9
    frequency:   20.5376544463

- q-position: [    0.2857143,    0.0000000,    0.2857143 ]
  distance:    0.1126777
  band:
  - # 1
    frequency:    3.2230197568
  - # 2
    frequency:    3.2230197568
  - # 3
    frequency:    7.7456282091
  - # 4
    frequency:    7.7456282091
  - # 5
    frequency:    8.3677103033
  - # 6
    frequency:   11.0274468815
  - # 7
    frequency:   16.6597231284
  - # 8
    frequency:   16.6597231284
  - # 9
    frequency:   20.7398377177

- q-position: [    0.2959184,    0.0000000,    0.2959184 ]
  distance:    0.1167019
  band:
  - # 1
    frequency:    3.2811082158
  - # 2
    frequency:    3.2811082158
  - # 3
    frequency:    7.8178479925
  - # 4
    frequency:    7.8178479925
  - # 5
    frequency:    8.5044221771
  - # 6
    frequency:   10.5129037402
  - # 7
    frequency:   16.6443788077
  - # 8
    frequency:   16.6443788077
  - # 9
    frequency:   20.9063153734

- q-position: [    0.3061224,    0.0000000,    0.3061224 ]
  distance:    0.1207261
  band:
  - # 1
    frequency:    3.3337901968
  - # 2
    frequency:    3.3337901968
  - # 3
    frequency:    7.8937554171
  - # 4
    frequency:    7.8937554171
  - # 5
    frequency:    8.6372612760
  - # 6
    frequency:    9.9687373784
  - # 7
    frequency:   16.6284504937
  - # 8
    frequency:   16.6284504937
  - # 9
    frequency:   21.0381397927

- q-position: [    0.3163265,    0.0000000,    0.3163265 ]
  distance:    0.1247503
  band:
  - # 1
    frequency:    3.3812845542
  - # 2
    frequency:    3.3812845542
  - # 3
    frequency:    7.9726862582
  - # 4
    frequency:    7.9726862582
  - # 5
    frequency:    8.7675060853
  - # 6
    frequency:    9.3931479228
  - # 7
    frequency:   16.6120124151
  - # 8
    frequency:   16.6120124151
  - # 9
    frequency:   21.1366235401

- q-position: [    0.3265306,    0.0000000,    0.3265306 ]
  distance:    0.1287745
  band:
  - # 1
    frequency:    3.4238535059
  - # 2
    frequency:    3.4238535059
  - # 3
    frequency:    8.0539069417
  - # 4
    frequency:    8.0539069417
  - # 5
    frequency:    8.7836976338
  - # 6
    frequency:    8.8963397106
  - # 7
    frequency:   16.5951531456
  - # 8
    frequency:   16.5951531456
  - # 9
    frequency:   21.2033406402

- q-position: [    0.3367347,    0.0000000,    0.3367347 ]
  distance:    0.1327987
  band:
  - # 1
    frequency:    3.4617916699
  - # 2
    frequency:    3.4617916699
  - # 3
    frequency:    8.1366293111
  - # 4
    frequency:    8.1366293111
  - # 5
    frequency:    8.1369498986
  - # 6
    frequency:    9.0247974836
  - # 7
    frequency:   16.5779760243
  - # 8
    frequency:   16.5779760243
  - # 9
    frequency:   21.2401287459

- q-position: [    0.3469388,    0.0000000,    0.3469388 ]
  distance:    0.1368229
  band:
  - # 1
    frequency:    3.4954151536
  - # 2
    frequency:    3.4954151536
  - # 3
    frequency:    7.4478507265
  - # 4
    frequency:    8.2200256343
  - # 5
    frequency:    8.2200256343
  - # 6
    frequency:    9.1537121188
  - # 7
    frequency:   16.5605992883
  - # 8
    frequency:   16.5605992883
  - # 9
    frequency:   21.2490919773

- q-position: [    0.3571429,    0.0000000,    0.3571429 ]
  distance:    0.1408471
  band:
  - # 1
    frequency:    3.5250513246
  - # 2
    frequency:    3.5250513246
  - # 3
    frequency:    6.7085919159
  - # 4
    frequency:    8.3032432298
  - # 5
    frequency:    8.3032432298
  - # 6
    frequency:    9.2836583665
  - # 7
    frequency:   16.5431558492
  - # 8
    frequency:   16.5431558492
  - # 9
    frequency:   21.2326040491

- q-position: [    0.3673469,    0.0000000,    0.3673469 ]
  distance:    0.1448713
  band:
  - # 1
    frequency:    3.5510296986
  - # 2
    frequency:    3.5510296986
  - # 3
    frequency:    5.9063143046
  - # 4
    frequency:    8.3854182918
  - # 5
    frequency:    8.3854182918
  - # 6
    frequency:    9.4148995540
  - # 7
    frequency:   16.5257926425
  - # 8
    frequency:   16.5257926425
  - # 9
    frequency:   21.1933110422

- q-position: [    0.3775510,    0.0000000,    0.3775510 ]
  distance:    0.1488955
  band:
  - # 1
    frequency:    3.5736741880
  - # 2
    frequency:    3.5736741880
  - # 3
    frequency:    5.0178012258
  - # 4
    frequency:    8.4656886955
  - # 5
    frequency:    8.4656886955
  - # 6
    frequency:    9.5473388587
  - # 7
    frequency:   16.5086694840
  - # 8
    frequency:   16.5086694840
  - # 9
    frequency:   21.1341327678

- q-position: [    0.3877551,    0.0000000,    0.3877551 ]
  distance:    0.1529197
  band:
  - # 1
    frequency:    3.5932967851
  - # 2
    frequency:    3.5932967851
  - # 3
    frequency:    3.9943729148
  - # 4
    frequency:    8.5432057255
  - # 5
    frequency:    8.5432057255
  - # 6
    frequency:    9.6804786056
  - # 7
    frequency:   16.4919573750
  - # 8
    frequency:   16.4919573750
  - # 9
    frequency:   21.0582610792

- q-position: [    0.3979592,    0.0000000,    0.3979592 ]
  distance:    0.1569439
  band:
  - # 1
    frequency:    2.6983277093
  - # 2
    frequency:    3.6101926270
  - # 3
    frequency:    3.6101926270
  - # 4
    frequency:    8.6171447933
  - # 5
    frequency:    8.6171447933
  - # 6
    frequency:    9.8133913921
  - # 7
    frequency:   16.4758362156
  - # 8
    frequency:   16.4758362156
  - # 9
    frequency:   20.9691526777

- q-position: [    0.4081633,    0.0000000,    0.4081633 ]
  distance:    0.1609681
  band:
  - # 1
    frequency:   -0.8833313197
  - # 2
    frequency:    3.6246363058
  - # 3
    frequency:    3.6246363058
  - # 4
    frequency:    8.6867152749
  - # 5
    frequency:    8.6867152749
  - # 6
    frequency:    9.9447074242
  - # 7
    frequency:   16.4604919079
  - # 8
    frequency:   16.4604919079
  - # 9
    frequency:   20.8705129272

- q-position: [    0.4183673,    0.0000000,    0.4183673 ]
  distance:    0.1649923
  band:
  - # 1
    frequency:   -2.8581045160
  - # 2
    frequency:    3.6368792389
  - # 3
    frequency:    3.6368792389
  - # 4
    frequency:    8.7511696187
  - # 5
    frequency:    8.7511696187
  - # 6
    frequency:   10.0726230948
  - # 7
    frequency:   16.4461128647
  - # 8
    frequency:   16.4461128647
  - # 9
    frequency:   20.7662660205

- q-position: [    0.4285714,    0.0000000,    0.4285714 ]
  distance:    0.1690165
  band:
  - # 1
    frequency:   -3.8508146551
  - # 2
    frequency:    3.6471479025
  - # 3
    frequency:    3.6471479025
  - # 4
    frequency:    8.8098118568
  - # 5
    frequency:    8.8098118568
  - # 6
    frequency:   10.1949363891
  - # 7
    frequency:   16.4328859789
  - # 8
    frequency:   16.4328859789
  - # 9
    frequency:   20.6605057296

- q-position: [    0.4387755,    0.0000000,    0.4387755 ]
  distance:    0.1730407
  band:
  - # 1
    frequency:   -4.5507678386
  - # 2
    frequency:    3.6556427327
  - # 3
    frequency:    3.6556427327
  - # 4
    frequency:    8.8620056051
  - # 5
    frequency:    8.8620056051
  - # 6
    frequency:   10.3091148112
  - # 7
    frequency:   16.4209921522
  - # 8
    frequency:   16.4209921522
  - # 9
    frequency:   20.5574203625

- q-position: [    0.4489796,    0.0000000,    0.4489796 ]
  distance:    0.1770649
  band:
  - # 1
    frequency:   -5.0759796312
  - # 2
    frequency:    3.6625375205
  - # 3
    frequency:    3.6625375205
  - # 4
    frequency:    8.9071815727
  - # 5
    frequency:    8.9071815727
  - # 6
    frequency:   10.4124005584
  - # 7
    frequency:   16.4106015332
  - # 8
    frequency:   16.4106015332
  - # 9
    frequency:   20.4611861082

- q-position: [    0.4591837,    0.0000000,    0.4591837 ]
  distance:    0.1810891
  band:
  - # 1
    frequency:   -5.4733630392
  - # 2
    frequency:    3.6679791509
  - # 3
    frequency:    3.6679791509
  - # 4
    frequency:    8.9448445388
  - # 5
    frequency:    8.9448445388
  - # 6
    frequency:   10.5019548009
  - # 7
    frequency:   16.4018686563
  - # 8
    frequency:   16.4018686563
  - # 9
    frequency:   20.3758255529

- q-position: [    0.4693878,    0.0000000,    0.4693878 ]
  distance:    0.1851133
  band:
  - # 1
    frequency:   -5.7665467714
  - # 2
    frequency:    3.6720875616
  - # 3
    frequency:    3.6720875616
  - # 4
    frequency:    8.9745796869
  - # 5
    frequency:    8.9745796869
  - # 6
    frequency:   10.5750374389
  - # 7
    frequency:   16.3949277121
  - # 8
    frequency:   16.3949277121
  - # 9
    frequency:   20.3050335088

- q-position: [    0.4795918,    0.0000000,    0.4795918 ]
  distance:    0.1891375
  band:
  - # 1
    frequency:   -5.9687264874
  - # 2
    frequency:    3.6749558273
  - # 3
    frequency:    3.6749558273
  - # 4
    frequency:    8.9960581454
  - # 5
    frequency:    8.9960581454
  - # 6
    frequency:   10.6292105942
  - # 7
    frequency:   16.3898881999
  - # 8
    frequency:   16.3898881999
  - # 9
    frequency:   20.2519804314

- q-position: [    0.4897959,    0.0000000,    0.4897959 ]
  distance:    0.1931617
  band:
  - # 1
    frequency:   -6.0874333288
  - # 2
    frequency:    3.6766502922
  - # 3
    frequency:    3.6766502922
  - # 4
    frequency:    9.0090415549
  - # 5
    frequency:    9.0090415549
  - # 6
    frequency:   10.6625447469
  - # 7
    frequency:   16.3868312169
  - # 8
    frequency:   16.3868312169
  - # 9
    frequency:   20.2191131762

- q-position: [    0.5000000,    0.0000000,    0.5000000 ]
  distance:    0.1971860
  band:
  - # 1
    frequency:   -6.1265944868
  - # 2
    frequency:    3.6772107014
  - # 3
    frequency:    3.6772107014
  - # 4
    frequency:    9.0133854855
  - # 5
    frequency:    9.0133854855
  - # 6
    frequency:   10.6737989366
  - # 7
    frequency:   16.3858066157
  - # 8
    frequency:   16.3858066157
  - # 9
    frequency:   20.2079805598

- q-position: [    0.5000000,    0.0000000,    0.5000000 ]
  distance:    0.1971860
  band:
  - # 1
    frequency:   -6.1265944868
  - # 2
    frequency:    3.6772107014
  - # 3
    frequency:    3.6772107014
  - # 4
    frequency:    9.0133854855
  - # 5
    frequency:    9.0133854855
  - # 6
    frequency:   10.6737989366
  - # 7
    frequency:   16.3858066157
  - # 8
    frequency:   16.3858066157
  - # 9
    frequency:   20.2079805598

- q-position: [    0.5025510,    0.0051020,    0.5025510 ]
  distance:    0.1986087
  band:
  - # 1
    frequency:   -6.1253633563
  - # 2
    frequency:    3.6768665487
  - # 3
    frequency:    3.6791489957
  - # 4
    frequency:    9.0133035475
  - # 5
    frequency:    9.0141311109
  - # 6
    frequency:   10.6733330845
  - # 7
    frequency:   16.3852998832
  - # 8
    frequency:   16.3862059008
  - # 9
    frequency:   20.2077010963

- q-position: [    0.5051020,    0.0102041,    0.5051020 ]
  distance:    0.2000315
  band:
  - # 1
    frequency:   -6.1216689871
  - # 2
    frequency:    3.6758339563
  - # 3
    frequency:    3.6849556686
  - # 4
    frequency:    9.0130566988
  - # 5
    frequency:    9.0163675854
  - # 6
    frequency:   10.6719368976
  - # 7
    frequency:   16.3837798224
  - # 8
    frequency:   16.3874026388
  - # 9
    frequency:   20.2068631245

- q-position: [    0.5076531,    0.0153061,    0.5076531 ]
  distance:    0.2014543
  band:
  - # 1
    frequency:   -6.1155084427
  - # 2
    frequency:    3.6741125255
  - # 3
    frequency:    3.6946062217
  - # 4
    frequency:    9.0126418315
  - # 5
    frequency:    9.0200937039
  - # 6
    frequency:   10.6696144894
  - # 7
    frequency:   16.3812468432
  - # 8
    frequency:   16.3893934813
  - # 9
    frequency:   20.2054678996

- q-position: [    0.5102041,    0.0204082,    0.5102041 ]
  distance:    0.2028770
  band:
  - # 1
    frequency:   -6.1068768173
  - # 2
    frequency:    3.6717016055
  - # 3
    frequency:    3.7080602592
  - # 4
    frequency:    9.0120537531
  - # 5
    frequency:    9.0253074603
  - # 6
    frequency:   10.6663727343
  - # 7
    frequency:   16.3777016322
  - # 8
    frequency:   16.3921728614
  - # 9
    frequency:   20.2035175105

- q-position: [    0.5127551,    0.0255102,    0.5127551 ]
  distance:    0.2042998
  band:
  - # 1
    frequency:   -6.0957672167
  - # 2
    frequency:    3.6686003150
  - # 3
    frequency:    3.7252621226
  - # 4
    frequency:    9.0112851673
  - # 5
    frequency:    9.0320060497
  - # 6
    frequency:   10.6622212959
  - # 7
    frequency:   16.3731451557
  - # 8
    frequency:   16.3957330132
  - # 9
    frequency:   20.2010148752

- q-position: [    0.5153061,    0.0306122,    0.5153061 ]
  distance:    0.2057226
  band:
  - # 1
    frequency:   -6.0821707334
  - # 2
    frequency:    3.6648075708
  - # 3
    frequency:    3.7461417442
  - # 4
    frequency:    9.0103266479
  - # 5
    frequency:    9.0401858731
  - # 6
    frequency:   10.6571726654
  - # 7
    frequency:   16.3675786658
  - # 8
    frequency:   16.4000640003
  - # 9
    frequency:   20.1979637343

- q-position: [    0.5178571,    0.0357143,    0.5178571 ]
  distance:    0.2071453
  band:
  - # 1
    frequency:   -6.0660764117
  - # 2
    frequency:    3.6603221256
  - # 3
    frequency:    3.7706156908
  - # 4
    frequency:    9.0091666048
  - # 5
    frequency:    9.0498425420
  - # 6
    frequency:   10.6512422118
  - # 7
    frequency:   16.3610037073
  - # 8
    frequency:   16.4051537516
  - # 9
    frequency:   20.1943686428

- q-position: [    0.5204082,    0.0408163,    0.5204082 ]
  distance:    0.2085681
  band:
  - # 1
    frequency:   -6.0474712058
  - # 2
    frequency:    3.6551426132
  - # 3
    frequency:    3.7985883579
  - # 4
    frequency:    9.0077912443
  - # 5
    frequency:    9.0609708849
  - # 6
    frequency:   10.6444482406
  - # 7
    frequency:   16.3534221264
  - # 8
    frequency:   16.4109881048
  - # 9
    frequency:   20.1902349596

- q-position: [    0.5229592,    0.0459184,    0.5229592 ]
  distance:    0.2099909
  band:
  - # 1
    frequency:   -6.0263399272
  - # 2
    frequency:    3.6492676020
  - # 3
    frequency:    3.8299532772
  - # 4
    frequency:    9.0061845218
  - # 5
    frequency:    9.0735649546
  - # 6
    frequency:   10.6368120642
  - # 7
    frequency:   16.3448360806
  - # 8
    frequency:   16.4175508578
  - # 9
    frequency:   20.1855688355

- q-position: [    0.5255102,    0.0510204,    0.5255102 ]
  distance:    0.2114137
  band:
  - # 1
    frequency:   -6.0026651826
  - # 2
    frequency:    3.6426956559
  - # 3
    frequency:    3.8645944960
  - # 4
    frequency:    9.0043280906
  - # 5
    frequency:    9.0876180366
  - # 6
    frequency:   10.6283580794
  - # 7
    frequency:   16.3352480503
  - # 8
    frequency:   16.4248238278
  - # 9
    frequency:   20.1803771989

- q-position: [    0.5280612,    0.0561224,    0.5280612 ]
  distance:    0.2128364
  band:
  - # 1
    frequency:   -5.9764273009
  - # 2
    frequency:    3.6354254027
  - # 3
    frequency:    3.9023879891
  - # 4
    frequency:    9.0022012444
  - # 5
    frequency:    9.1031226579
  - # 6
    frequency:   10.6191138534
  - # 7
    frequency:   16.3246608519
  - # 8
    frequency:   16.4327869170
  - # 9
    frequency:   20.1746677393

- q-position: [    0.5306122,    0.0612245,    0.5306122 ]
  distance:    0.2142592
  band:
  - # 1
    frequency:   -5.9476042466
  - # 2
    frequency:    3.6274556101
  - # 3
    frequency:    3.9432030676
  - # 4
    frequency:    8.9997808586
  - # 5
    frequency:    9.1200705979
  - # 6
    frequency:   10.6091102163
  - # 7
    frequency:   16.3130776515
  - # 8
    frequency:   16.4414181863
  - # 9
    frequency:   20.1684488895

- q-position: [    0.5331633,    0.0663265,    0.5331633 ]
  distance:    0.2156820
  band:
  - # 1
    frequency:   -5.9161715208
  - # 2
    frequency:    3.6187852682
  - # 3
    frequency:    3.9869037517
  - # 4
    frequency:    8.9970413280
  - # 5
    frequency:    9.1384528989
  - # 6
    frequency:   10.5983813576
  - # 7
    frequency:   16.3005019809
  - # 8
    frequency:   16.4506939353
  - # 9
    frequency:   20.1617298045

- q-position: [    0.5357143,    0.0714286,    0.5357143 ]
  distance:    0.2171047
  band:
  - # 1
    frequency:   -5.8821020449
  - # 2
    frequency:    3.6094136789
  - # 3
    frequency:    4.0333500809
  - # 4
    frequency:    8.9939545072
  - # 5
    frequency:    9.1582598786
  - # 6
    frequency:   10.5869649255
  - # 7
    frequency:   16.2869377535
  - # 8
    frequency:   16.4605887896
  - # 9
    frequency:   20.1545203392

- q-position: [    0.5382653,    0.0765306,    0.5382653 ]
  distance:    0.2185275
  band:
  - # 1