96   
2    

1    
  0.0100000000000000  -0.0000000000000000   0.0000000000000000
  -0.1563774738   -0.0000211973    0.0000122347
  -0.0329974336   -0.0000161433   -0.0000154422
  -0.0022051825    0.0000194010   -0.0000154947
  -0.0329977187    0.0000166013    0.0000154138
   0.0222140518   -0.0000400302    0.0264431261
   0.0011873866    0.0042142902    0.0000044312
   0.0012033643    0.0000006096   -0.0042457508
   0.0221858345   -0.0264401726    0.0000345203
   0.0089168270   -0.0000213145   -0.0000139039
   0.0095225915    0.0000089848   -0.0000097234
   0.0088544807    0.0000226098    0.0000141883
   0.0095206537   -0.0000074595    0.0000092734
   0.0221390469   -0.0000028629    0.0262479202
   0.0221099628   -0.0262447151   -0.0000041891
   0.0012199809    0.0000382364   -0.0042450128
   0.0012016251    0.0042128103   -0.0000340090
   0.0221868034    0.0264411616   -0.0000050991
   0.0012028622    0.0000387309    0.0042461193
   0.0011872940   -0.0042144965   -0.0000329795
   0.0222133947   -0.0000009923   -0.0264427555
   0.0095228045    0.0000085186    0.0000102790
   0.0032299707    0.0000221672   -0.0000145265
   0.0095221570   -0.0000073718   -0.0000097174
   0.0217173321   -0.0000225385    0.0000137295
   0.0012025013   -0.0042137941    0.0000029167
   0.0012196094    0.0000030495    0.0042447011
   0.0221085459    0.0262453663    0.0000340354
   0.0221390937   -0.0000391002   -0.0262469819
  -0.0329974904   -0.0000165643    0.0000148500
  -0.0142832781    0.0000197058    0.0000131421
  -0.0329979063    0.0000154746   -0.0000147000
  -0.0142802116   -0.0000209953   -0.0000154123
   0.0167419212   -0.0036158290   -0.0036155106
   0.0025709448    0.0006351411    0.0006328565
   0.0025709623   -0.0006345797   -0.0006329805
   0.0167419449    0.0036153847    0.0036159482
  -0.0040944013   -0.0021251842   -0.0024506006
  -0.0014412812   -0.0001577422    0.0001574759
  -0.0040886485    0.0024605345    0.0021245931
  -0.0096332316    0.0008223782   -0.0008223371
  -0.0040982673    0.0021245670   -0.0024444639
  -0.0040925781    0.0024542708   -0.0021239997
  -0.0040925952   -0.0024536865    0.0021244332
  -0.0040982745   -0.0021250197    0.0024443316
   0.0161749439    0.0041027229   -0.0041028431
   0.0033271628    0.0059719918    0.0013185784
   0.0025664062    0.0006332573   -0.0006311643
   0.0033269349   -0.0013185368   -0.0059721635
  -0.0040886678   -0.0024599549   -0.0021241606
  -0.0014412329    0.0001583301   -0.0001576005
  -0.0040943866    0.0021247288    0.0024504671
  -0.0096332545   -0.0008228272    0.0008227633
  -0.0014468266    0.0001562082    0.0001552811
  -0.0014468531   -0.0001556107   -0.0001554332
  -0.0096179931   -0.0008093806   -0.0008088800
  -0.0096179774    0.0008089248    0.0008093168
   0.0025664337   -0.0006326933    0.0006310308
   0.0033271493   -0.0059714350   -0.0013181474
   0.0161749118   -0.0041031694    0.0041032881
   0.0033269479    0.0013180938    0.0059720338
   0.0033286190   -0.0059707072    0.0013327184
   0.0033286280    0.0059712693   -0.0013322848
   0.0033284236    0.0013322315   -0.0059714386
   0.0033284148   -0.0013326701    0.0059713049
  -0.0014411815   -0.0001571807   -0.0001570532
  -0.0014411590    0.0001577747    0.0001569048
  -0.0096331287    0.0008229357    0.0008233258
  -0.0096331403   -0.0008233874   -0.0008228908
  -0.0014467829    0.0001556724   -0.0001548889
  -0.0040926455   -0.0024542178   -0.0021234644
  -0.0096179461   -0.0008099108    0.0008098436
  -0.0040983132    0.0021240322    0.0024448575
   0.0033271235    0.0059714613   -0.0013186813
   0.0033270944   -0.0059708982    0.0013191216
   0.0033268807   -0.0013190705    0.0059714990
   0.0033269107    0.0013186292   -0.0059716360
   0.0033285188   -0.0059701446   -0.0013328493
   0.0025710399   -0.0006340215    0.0006322976
   0.0033283339    0.0013327909    0.0059707468
   0.0167420245   -0.0036152630    0.0036153831
  -0.0014468086   -0.0001550788    0.0001547591
  -0.0040983305   -0.0021244901   -0.0024449963
  -0.0096179314    0.0008094578   -0.0008094107
  -0.0040926202    0.0024547978    0.0021239048
   0.0025664593    0.0006327229    0.0006304999
   0.0161749588   -0.0041026283   -0.0041023146
   0.0161749750    0.0041021893    0.0041027429
   0.0025664710   -0.0006321608   -0.0006306287
   0.0033285376    0.0059707035    0.0013332757
   0.0167420350    0.0036148272   -0.0036149555
   0.0033283157   -0.0013332337   -0.0059708668
   0.0025710370    0.0006345837   -0.0006324253
  -0.0040887331    0.0024610922   -0.0021236075
  -0.0040944748    0.0021241766   -0.0024511506
  -0.0040945087   -0.0021246277    0.0024510259
  -0.0040887704   -0.0024605111    0.0021240362

33   
  0.0100000000000000  -0.0000000000000000   0.0000000000000000
   0.0161557897   -0.0041915634   -0.0041908778
   0.0161426294    0.0041944733    0.0041950346
   0.0024353744    0.0021651383    0.0021634085
   0.0024731962   -0.0021683917   -0.0021696086
   0.0167074797    0.0034854019   -0.0034611746
   0.0033727033   -0.0012791153   -0.0008486794
   0.0024513402   -0.0021723546    0.0021757093
   0.0033692388    0.0008245221    0.0012751821
  -0.0040134831   -0.0006131217   -0.0024663399
  -0.0040230893    0.0006173370    0.0024614258
  -0.0040123233   -0.0024642692   -0.0006145816
  -0.0040233509    0.0024636070    0.0006166967
  -0.0040245479    0.0006306810   -0.0024250183
  -0.0096091894    0.0059087485   -0.0059264231
  -0.0040190157    0.0024420219   -0.0006191501
  -0.0014320259   -0.0002060462    0.0001941508
   0.0167075399   -0.0034608773    0.0034870792
   0.0033731795   -0.0008474757   -0.0012787853
   0.0024506762    0.0021763201   -0.0021723110
   0.0033689103    0.0012758981    0.0008239019
  -0.0096690199   -0.0060112306   -0.0060106560
  -0.0014087643   -0.0002067208   -0.0002080024
  -0.0014341449    0.0002047847    0.0002036963
  -0.0096180277    0.0060131828    0.0060147868
  -0.0040206922   -0.0006191776    0.0024397688
  -0.0014295571    0.0001944697   -0.0002052842
  -0.0040249920   -0.0024252922    0.0006294216
  -0.0096096462   -0.0059266856    0.0059094531
   0.0033385116    0.0013043018   -0.0008341946
   0.0033170476    0.0008303038   -0.0013005171
   0.0033381333   -0.0008341682    0.0013046223
   0.0033168039   -0.0013016895    0.0008298637
  -0.1258588224    0.0000015272    0.0000016837
  -0.0028601493   -0.0014986827   -0.0014985223
  -0.0012262684   -0.0000003443   -0.0000001840
  -0.0028572755    0.0014972942    0.0014974589
   0.0012821846    0.0015035003    0.0037052402
  -0.0003084435   -0.0002088700   -0.0011040411
  -0.0003084431    0.0011031867    0.0002081218
   0.0012823047   -0.0037049921   -0.0015018846
   0.0015999484   -0.0000001863    0.0000006229
   0.0029716347   -0.0010996095    0.0010993061
   0.0015999484    0.0000004574   -0.0000000267
   0.0029716341    0.0010991418   -0.0010994479
   0.0012919137   -0.0015033576    0.0036769150
   0.0012890641   -0.0036762389    0.0015024559
  -0.0003004786   -0.0011022835    0.0002073420
  -0.0003001587   -0.0002074092    0.0011028342
   0.0012821889    0.0037050824    0.0015036618
  -0.0003084432   -0.0011042032   -0.0002087085
  -0.0003084435    0.0002079587    0.0011033501
   0.0012823071   -0.0015020453   -0.0037048249
   0.0029870053    0.0011180441    0.0011182053
   0.0006565374   -0.0000006330   -0.0000004670
   0.0029870375   -0.0011172256   -0.0011170636
   0.0106471293   -0.0000003714   -0.0000002117
  -0.0003004751    0.0002071771   -0.0011021196
  -0.0003001600    0.0011026710   -0.0002072435
   0.0012919153    0.0036767456   -0.0015031979
   0.0012890632    0.0015022951   -0.0036760783
  -0.0028630278    0.0015048810   -0.0015038418
  -0.0007062294   -0.0000012269    0.0000003325
  -0.0028630257   -0.0015040058    0.0015050411
  -0.0007062306    0.0000001752   -0.0000010565
  -0.0003887165    0.0008845849    0.0008847441
   0.0002838764   -0.0000000177    0.0000001493
  -0.0003885935   -0.0008855107   -0.0008853442
   0.0442145574    0.0000007558    0.0000009176
   0.0010430113    0.0000025305   -0.0003581820
   0.0010430249    0.0003581726   -0.0000017307
   0.0025954119   -0.0000106547    0.0005452316
   0.0025953234   -0.0005456205    0.0000105321
  -0.0003749473   -0.0008701107    0.0008691030
  -0.0002485383    0.0000006830    0.0000004610
  -0.0003749478    0.0008689365   -0.0008699515
  -0.0002485376    0.0000003028    0.0000008484
  -0.0109734278   -0.0001142562   -0.0002820435
  -0.0009451025   -0.0005367839   -0.0000009599
  -0.0009449099    0.0000011068    0.0005353587
  -0.0109707961    0.0002839373    0.0001139195
   0.0010430108   -0.0003583480    0.0000026915
   0.0010430260   -0.0000018973    0.0003583405
   0.0025954106    0.0005450733   -0.0000104873
   0.0025953248    0.0000103718   -0.0005454617
   0.0002854228   -0.0000002573   -0.0000000884
   0.0068124054    0.0063682310    0.0063683990
   0.0432917939   -0.0000013938   -0.0000012357
   0.0068092192   -0.0063667447   -0.0063665827
  -0.0009449079    0.0005351912    0.0000012714
  -0.0109707975    0.0001137536    0.0002840963
  -0.0109734270   -0.0002822077   -0.0001140959
  -0.0009451031   -0.0000011199   -0.0005366190
  -0.0002597827   -0.0000010203    0.0000008969
   0.0068395357   -0.0063738731    0.0063741420
  -0.0002597837    0.0000007351   -0.0000008604
   0.0068395386    0.0063739851   -0.0063737089