phonopy:
  version: 2.6.1
  frequency_unit_conversion_factor: 15.633304
  symmetry_tolerance: 1.00000e-05

physical_unit:
  atomic_mass: "AMU"

supercell_matrix:
- [  -2,   2,   2 ]
- [   2,  -2,   2 ]
- [   2,   2,  -2 ]

space_group:
  type: "Fm-3m"
  number: 225
  Hall_symbol: "-F 4 2 3"

primitive_cell:
  lattice:
  - [     0.000000000000000,     2.535677595000000,     2.535677595000000 ] # a
  - [     2.535677595000000,     0.000000000000000,     2.535677595000000 ] # b
  - [     2.535677595000000,     2.535677595000000,     0.000000000000000 ] # c
  points:
  - symbol: Zr # 1
    coordinates: [  0.000000000000000,  0.000000000000000,  0.000000000000000 ]
    mass: 91.224000
  - symbol: O  # 2
    coordinates: [  0.250000000000000,  0.250000000000000,  0.250000000000000 ]
    mass: 15.999000
  - symbol: O  # 3
    coordinates: [  0.750000000000000,  0.750000000000000,  0.750000000000000 ]
    mass: 15.999000
  reciprocal_lattice: # without 2pi
  - [    -0.197185951788954,     0.197185951788954,     0.197185951788954 ] # a*
  - [     0.197185951788954,    -0.197185951788954,     0.197185951788954 ] # b*
  - [     0.197185951788954,     0.197185951788954,    -0.197185951788954 ] # c*

unit_cell:
  lattice:
  - [     0.000000000000000,     2.535677595000000,     2.535677595000000 ] # a
  - [     2.535677595000000,     0.000000000000000,     2.535677595000000 ] # b
  - [     2.535677595000000,     2.535677595000000,     0.000000000000000 ] # c
  points:
  - symbol: Zr # 1
    coordinates: [  0.000000000000000,  0.000000000000000,  0.000000000000000 ]
    mass: 91.224000
    reduced_to: 1
  - symbol: O  # 2
    coordinates: [  0.250000000000000,  0.250000000000000,  0.250000000000000 ]
    mass: 15.999000
    reduced_to: 2
  - symbol: O  # 3
    coordinates: [  0.750000000000000,  0.750000000000000,  0.750000000000000 ]
    mass: 15.999000
    reduced_to: 3

supercell:
  lattice:
  - [    10.142710380000000,    -0.000000000000000,     0.000000000000000 ] # a
  - [    -0.000000000000000,    10.142710380000000,     0.000000000000000 ] # b
  - [     0.000000000000000,     0.000000000000000,    10.142710380000000 ] # c
  points:
  - symbol: Zr # 1
    coordinates: [  0.000000000000000,  0.000000000000000,  0.000000000000000 ]
    mass: 91.224000
    reduced_to: 1
  - symbol: Zr # 2
    coordinates: [  1.000000000000000,  0.250000000000000,  0.250000000000000 ]
    mass: 91.224000
    reduced_to: 1
  - symbol: Zr # 3
    coordinates: [  1.000000000000000,  0.500000000000000,  0.500000000000000 ]
    mass: 91.224000
    reduced_to: 1
  - symbol: Zr # 4
    coordinates: [  1.000000000000000,  0.750000000000000,  0.750000000000000 ]
    mass: 91.224000
    reduced_to: 1
  - symbol: Zr # 5
    coordinates: [  0.250000000000000,  0.000000000000000,  0.250000000000000 ]
    mass: 91.224000
    reduced_to: 1
  - symbol: Zr # 6
    coordinates: [  0.250000000000000,  0.250000000000000,  0.500000000000000 ]
    mass: 91.224000
    reduced_to: 1
  - symbol: Zr # 7
    coordinates: [  0.250000000000000,  0.500000000000000,  0.750000000000000 ]
    mass: 91.224000
    reduced_to: 1
  - symbol: Zr # 8
    coordinates: [  0.250000000000000,  0.750000000000000,  0.000000000000000 ]
    mass: 91.224000
    reduced_to: 1
  - symbol: Zr # 9
    coordinates: [  0.500000000000000,  0.000000000000000,  0.500000000000000 ]
    mass: 91.224000
    reduced_to: 1
  - symbol: Zr # 10
    coordinates: [  0.500000000000000,  0.250000000000000,  0.750000000000000 ]
    mass: 91.224000
    reduced_to: 1
  - symbol: Zr # 11
    coordinates: [  0.500000000000000,  0.500000000000000,  0.000000000000000 ]
    mass: 91.224000
    reduced_to: 1
  - symbol: Zr # 12
    coordinates: [  0.500000000000000,  0.750000000000000,  0.250000000000000 ]
    mass: 91.224000
    reduced_to: 1
  - symbol: Zr # 13
    coordinates: [  0.750000000000000,  0.000000000000000,  0.750000000000000 ]
    mass: 91.224000
    reduced_to: 1
  - symbol: Zr # 14
    coordinates: [  0.750000000000000,  0.250000000000000,  0.000000000000000 ]
    mass: 91.224000
    reduced_to: 1
  - symbol: Zr # 15
    coordinates: [  0.750000000000000,  0.500000000000000,  0.250000000000000 ]
    mass: 91.224000
    reduced_to: 1
  - symbol: Zr # 16
    coordinates: [  0.750000000000000,  0.750000000000000,  0.500000000000000 ]
    mass: 91.224000
    reduced_to: 1
  - symbol: Zr # 17
    coordinates: [  0.250000000000000,  0.250000000000000,  0.000000000000000 ]
    mass: 91.224000
    reduced_to: 1
  - symbol: Zr # 18
    coordinates: [  0.250000000000000,  0.500000000000000,  0.250000000000000 ]
    mass: 91.224000
    reduced_to: 1
  - symbol: Zr # 19
    coordinates: [  0.250000000000000,  0.750000000000000,  0.500000000000000 ]
    mass: 91.224000
    reduced_to: 1
  - symbol: Zr # 20
    coordinates: [  0.250000000000000,  0.000000000000000,  0.750000000000000 ]
    mass: 91.224000
    reduced_to: 1
  - symbol: Zr # 21
    coordinates: [  0.500000000000000,  0.250000000000000,  0.250000000000000 ]
    mass: 91.224000
    reduced_to: 1
  - symbol: Zr # 22
    coordinates: [  0.500000000000000,  0.500000000000000,  0.500000000000000 ]
    mass: 91.224000
    reduced_to: 1
  - symbol: Zr # 23
    coordinates: [  0.500000000000000,  0.750000000000000,  0.750000000000000 ]
    mass: 91.224000
    reduced_to: 1
  - symbol: Zr # 24
    coordinates: [  0.500000000000000,  0.000000000000000,  0.000000000000000 ]
    mass: 91.224000
    reduced_to: 1
  - symbol: Zr # 25
    coordinates: [  0.750000000000000,  0.250000000000000,  0.500000000000000 ]
    mass: 91.224000
    reduced_to: 1
  - symbol: Zr # 26
    coordinates: [  0.750000000000000,  0.500000000000000,  0.750000000000000 ]
    mass: 91.224000
    reduced_to: 1
  - symbol: Zr # 27
    coordinates: [  0.750000000000000,  0.750000000000000,  0.000000000000000 ]
    mass: 91.224000
    reduced_to: 1
  - symbol: Zr # 28
    coordinates: [  0.750000000000000,  0.000000000000000,  0.250000000000000 ]
    mass: 91.224000
    reduced_to: 1
  - symbol: Zr # 29
    coordinates: [  0.000000000000000,  0.250000000000000,  0.750000000000000 ]
    mass: 91.224000
    reduced_to: 1
  - symbol: Zr # 30
    coordinates: [  0.000000000000000,  0.500000000000000,  0.000000000000000 ]
    mass: 91.224000
    reduced_to: 1
  - symbol: Zr # 31
    coordinates: [  0.000000000000000,  0.750000000000000,  0.250000000000000 ]
    mass: 91.224000
    reduced_to: 1
  - symbol: Zr # 32
    coordinates: [  0.000000000000000,  0.000000000000000,  0.500000000000000 ]
    mass: 91.224000
    reduced_to: 1
  - symbol: O  # 33
    coordinates: [  0.125000000000000,  0.125000000000000,  0.125000000000000 ]
    mass: 15.999000
    reduced_to: 33
  - symbol: O  # 34
    coordinates: [  0.125000000000000,  0.375000000000000,  0.375000000000000 ]
    mass: 15.999000
    reduced_to: 33
  - symbol: O  # 35
    coordinates: [  0.125000000000000,  0.625000000000000,  0.625000000000000 ]
    mass: 15.999000
    reduced_to: 33
  - symbol: O  # 36
    coordinates: [  0.125000000000000,  0.875000000000000,  0.875000000000000 ]
    mass: 15.999000
    reduced_to: 33
  - symbol: O  # 37
    coordinates: [  0.375000000000000,  0.125000000000000,  0.375000000000000 ]
    mass: 15.999000
    reduced_to: 33
  - symbol: O  # 38
    coordinates: [  0.375000000000000,  0.375000000000000,  0.625000000000000 ]
    mass: 15.999000
    reduced_to: 33
  - symbol: O  # 39
    coordinates: [  0.375000000000000,  0.625000000000000,  0.875000000000000 ]
    mass: 15.999000
    reduced_to: 33
  - symbol: O  # 40
    coordinates: [  0.375000000000000,  0.875000000000000,  0.125000000000000 ]
    mass: 15.999000
    reduced_to: 33
  - symbol: O  # 41
    coordinates: [  0.625000000000000,  0.125000000000000,  0.625000000000000 ]
    mass: 15.999000
    reduced_to: 33
  - symbol: O  # 42
    coordinates: [  0.625000000000000,  0.375000000000000,  0.875000000000000 ]
    mass: 15.999000
    reduced_to: 33
  - symbol: O  # 43
    coordinates: [  0.625000000000000,  0.625000000000000,  0.125000000000000 ]
    mass: 15.999000
    reduced_to: 33
  - symbol: O  # 44
    coordinates: [  0.625000000000000,  0.875000000000000,  0.375000000000000 ]
    mass: 15.999000
    reduced_to: 33
  - symbol: O  # 45
    coordinates: [  0.875000000000000,  0.125000000000000,  0.875000000000000 ]
    mass: 15.999000
    reduced_to: 33
  - symbol: O  # 46
    coordinates: [  0.875000000000000,  0.375000000000000,  0.125000000000000 ]
    mass: 15.999000
    reduced_to: 33
  - symbol: O  # 47
    coordinates: [  0.875000000000000,  0.625000000000000,  0.375000000000000 ]
    mass: 15.999000
    reduced_to: 33
  - symbol: O  # 48
    coordinates: [  0.875000000000000,  0.875000000000000,  0.625000000000000 ]
    mass: 15.999000
    reduced_to: 33
  - symbol: O  # 49
    coordinates: [  0.375000000000000,  0.375000000000000,  0.125000000000000 ]
    mass: 15.999000
    reduced_to: 33
  - symbol: O  # 50
    coordinates: [  0.375000000000000,  0.625000000000000,  0.375000000000000 ]
    mass: 15.999000
    reduced_to: 33
  - symbol: O  # 51
    coordinates: [  0.375000000000000,  0.875000000000000,  0.625000000000000 ]
    mass: 15.999000
    reduced_to: 33
  - symbol: O  # 52
    coordinates: [  0.375000000000000,  0.125000000000000,  0.875000000000000 ]
    mass: 15.999000
    reduced_to: 33
  - symbol: O  # 53
    coordinates: [  0.625000000000000,  0.375000000000000,  0.375000000000000 ]
    mass: 15.999000
    reduced_to: 33
  - symbol: O  # 54
    coordinates: [  0.625000000000000,  0.625000000000000,  0.625000000000000 ]
    mass: 15.999000
    reduced_to: 33
  - symbol: O  # 55
    coordinates: [  0.625000000000000,  0.875000000000000,  0.875000000000000 ]
    mass: 15.999000
    reduced_to: 33
  - symbol: O  # 56
    coordinates: [  0.625000000000000,  0.125000000000000,  0.125000000000000 ]
    mass: 15.999000
    reduced_to: 33
  - symbol: O  # 57
    coordinates: [  0.875000000000000,  0.375000000000000,  0.625000000000000 ]
    mass: 15.999000
    reduced_to: 33
  - symbol: O  # 58
    coordinates: [  0.875000000000000,  0.625000000000000,  0.875000000000000 ]
    mass: 15.999000
    reduced_to: 33
  - symbol: O  # 59
    coordinates: [  0.875000000000000,  0.875000000000000,  0.125000000000000 ]
    mass: 15.999000
    reduced_to: 33
  - symbol: O  # 60
    coordinates: [  0.875000000000000,  0.125000000000000,  0.375000000000000 ]
    mass: 15.999000
    reduced_to: 33
  - symbol: O  # 61
    coordinates: [  0.125000000000000,  0.375000000000000,  0.875000000000000 ]
    mass: 15.999000
    reduced_to: 33
  - symbol: O  # 62
    coordinates: [  0.125000000000000,  0.625000000000000,  0.125000000000000 ]
    mass: 15.999000
    reduced_to: 33
  - symbol: O  # 63
    coordinates: [  0.125000000000000,  0.875000000000000,  0.375000000000000 ]
    mass: 15.999000
    reduced_to: 33
  - symbol: O  # 64
    coordinates: [  0.125000000000000,  0.125000000000000,  0.625000000000000 ]
    mass: 15.999000
    reduced_to: 33
  - symbol: O  # 65
    coordinates: [  0.375000000000000,  0.375000000000000,  0.375000000000000 ]
    mass: 15.999000
    reduced_to: 65
  - symbol: O  # 66
    coordinates: [  0.375000000000000,  0.625000000000000,  0.625000000000000 ]
    mass: 15.999000
    reduced_to: 65
  - symbol: O  # 67
    coordinates: [  0.375000000000000,  0.875000000000000,  0.875000000000000 ]
    mass: 15.999000
    reduced_to: 65
  - symbol: O  # 68
    coordinates: [  0.375000000000000,  0.125000000000000,  0.125000000000000 ]
    mass: 15.999000
    reduced_to: 65
  - symbol: O  # 69
    coordinates: [  0.625000000000000,  0.375000000000000,  0.625000000000000 ]
    mass: 15.999000
    reduced_to: 65
  - symbol: O  # 70
    coordinates: [  0.625000000000000,  0.625000000000000,  0.875000000000000 ]
    mass: 15.999000
    reduced_to: 65
  - symbol: O  # 71
    coordinates: [  0.625000000000000,  0.875000000000000,  0.125000000000000 ]
    mass: 15.999000
    reduced_to: 65
  - symbol: O  # 72
    coordinates: [  0.625000000000000,  0.125000000000000,  0.375000000000000 ]
    mass: 15.999000
    reduced_to: 65
  - symbol: O  # 73
    coordinates: [  0.875000000000000,  0.375000000000000,  0.875000000000000 ]
    mass: 15.999000
    reduced_to: 65
  - symbol: O  # 74
    coordinates: [  0.875000000000000,  0.625000000000000,  0.125000000000000 ]
    mass: 15.999000
    reduced_to: 65
  - symbol: O  # 75
    coordinates: [  0.875000000000000,  0.875000000000000,  0.375000000000000 ]
    mass: 15.999000
    reduced_to: 65
  - symbol: O  # 76
    coordinates: [  0.875000000000000,  0.125000000000000,  0.625000000000000 ]
    mass: 15.999000
    reduced_to: 65
  - symbol: O  # 77
    coordinates: [  0.125000000000000,  0.375000000000000,  0.125000000000000 ]
    mass: 15.999000
    reduced_to: 65
  - symbol: O  # 78
    coordinates: [  0.125000000000000,  0.625000000000000,  0.375000000000000 ]
    mass: 15.999000
    reduced_to: 65
  - symbol: O  # 79
    coordinates: [  0.125000000000000,  0.875000000000000,  0.625000000000000 ]
    mass: 15.999000
    reduced_to: 65
  - symbol: O  # 80
    coordinates: [  0.125000000000000,  0.125000000000000,  0.875000000000000 ]
    mass: 15.999000
    reduced_to: 65
  - symbol: O  # 81
    coordinates: [  0.625000000000000,  0.625000000000000,  0.375000000000000 ]
    mass: 15.999000
    reduced_to: 65
  - symbol: O  # 82
    coordinates: [  0.625000000000000,  0.875000000000000,  0.625000000000000 ]
    mass: 15.999000
    reduced_to: 65
  - symbol: O  # 83
    coordinates: [  0.625000000000000,  0.125000000000000,  0.875000000000000 ]
    mass: 15.999000
    reduced_to: 65
  - symbol: O  # 84
    coordinates: [  0.625000000000000,  0.375000000000000,  0.125000000000000 ]
    mass: 15.999000
    reduced_to: 65
  - symbol: O  # 85
    coordinates: [  0.875000000000000,  0.625000000000000,  0.625000000000000 ]
    mass: 15.999000
    reduced_to: 65
  - symbol: O  # 86
    coordinates: [  0.875000000000000,  0.875000000000000,  0.875000000000000 ]
    mass: 15.999000
    reduced_to: 65
  - symbol: O  # 87
    coordinates: [  0.875000000000000,  0.125000000000000,  0.125000000000000 ]
    mass: 15.999000
    reduced_to: 65
  - symbol: O  # 88
    coordinates: [  0.875000000000000,  0.375000000000000,  0.375000000000000 ]
    mass: 15.999000
    reduced_to: 65
  - symbol: O  # 89
    coordinates: [  0.125000000000000,  0.625000000000000,  0.875000000000000 ]
    mass: 15.999000
    reduced_to: 65
  - symbol: O  # 90
    coordinates: [  0.125000000000000,  0.875000000000000,  0.125000000000000 ]
    mass: 15.999000
    reduced_to: 65
  - symbol: O  # 91
    coordinates: [  0.125000000000000,  0.125000000000000,  0.375000000000000 ]
    mass: 15.999000
    reduced_to: 65
  - symbol: O  # 92
    coordinates: [  0.125000000000000,  0.375000000000000,  0.625000000000000 ]
    mass: 15.999000
    reduced_to: 65
  - symbol: O  # 93
    coordinates: [  0.375000000000000,  0.625000000000000,  0.125000000000000 ]
    mass: 15.999000
    reduced_to: 65
  - symbol: O  # 94
    coordinates: [  0.375000000000000,  0.875000000000000,  0.375000000000000 ]
    mass: 15.999000
    reduced_to: 65
  - symbol: O  # 95
    coordinates: [  0.375000000000000,  0.125000000000000,  0.625000000000000 ]
    mass: 15.999000
    reduced_to: 65
  - symbol: O  # 96
    coordinates: [  0.375000000000000,  0.375000000000000,  0.875000000000000 ]
    mass: 15.999000
    reduced_to: 65

displacements:
- atom:    1
  displacement:
    [   0.0100000000000000, -0.0000000000000000,  0.0000000000000000 ]
  forces:
  - [  -0.1563774737980530, -0.0000211972516604,  0.0000122346888353 ]
  - [  -0.0329974335613538, -0.0000161433231521, -0.0000154421784733 ]
  - [  -0.0022051825285285,  0.0000194010443543, -0.0000154946608825 ]
  - [  -0.0329977187338591,  0.0000166012916660,  0.0000154138335255 ]
  - [   0.0222140518415920, -0.0000400302418201,  0.0264431260642122 ]
  - [   0.0011873866384630,  0.0042142901890415,  0.0000044311926966 ]
  - [   0.0012033643149069,  0.0000006095928976, -0.0042457508153612 ]
  - [   0.0221858344909143, -0.0264401725986950,  0.0000345203226103 ]
  - [   0.0089168270476143, -0.0000213144797997, -0.0000139039200642 ]
  - [   0.0095225914502358,  0.0000089847639496, -0.0000097234440216 ]
  - [   0.0088544806902305,  0.0000226097666132,  0.0000141883227358 ]
  - [   0.0095206537175642, -0.0000074595305190,  0.0000092733695997 ]
  - [   0.0221390468619037, -0.0000028628553454,  0.0262479202393265 ]
  - [   0.0221099627896966, -0.0262447150697215, -0.0000041891100287 ]
  - [   0.0012199809071472,  0.0000382363900531, -0.0042450128226328 ]
  - [   0.0012016250566336,  0.0042128103044530, -0.0000340089694018 ]
  - [   0.0221868033807766,  0.0264411616412568, -0.0000050991122500 ]
  - [   0.0012028621574314,  0.0000387308984385,  0.0042461192929437 ]
  - [   0.0011872939746117, -0.0042144965318996, -0.0000329795035107 ]
  - [   0.0222133946707497, -0.0000009923233682, -0.0264427554561557 ]
  - [   0.0095228044805605,  0.0000085186411360,  0.0000102789979033 ]
  - [   0.0032299706844991,  0.0000221671875502, -0.0000145265328263 ]
  - [   0.0095221570294037, -0.0000073718183018, -0.0000097174497554 ]
  - [   0.0217173320723615, -0.0000225384744089,  0.0000137294506353 ]
  - [   0.0012025013018204, -0.0042137941480399,  0.0000029166840835 ]
  - [   0.0012196094231740,  0.0000030495243915,  0.0042447011443768 ]
  - [   0.0221085458698807,  0.0262453662899038,  0.0000340353547465 ]
  - [   0.0221390936907093, -0.0000391001943411, -0.0262469818745443 ]
  - [  -0.0329974904405239, -0.0000165643051152,  0.0000148499881625 ]
  - [  -0.0142832780965065,  0.0000197057529567,  0.0000131420923094 ]
  - [  -0.0329979062829401,  0.0000154746113239, -0.0000147000401623 ]
  - [  -0.0142802115813532, -0.0000209953002970, -0.0000154123360348 ]
  - [   0.0167419211842970, -0.0036158289957237, -0.0036155105849802 ]
  - [   0.0025709448435629,  0.0006351411204469,  0.0006328565262605 ]
  - [   0.0025709622897964, -0.0006345796730665, -0.0006329804789208 ]
  - [   0.0167419448717650,  0.0036153847237369,  0.0036159482134086 ]
  - [  -0.0040944012575944, -0.0021251841830092, -0.0024506006333222 ]
  - [  -0.0014412811506282, -0.0001577421912476,  0.0001574759146043 ]
  - [  -0.0040886484711967,  0.0024605345358132,  0.0021245931104829 ]
  - [  -0.0096332315795186,  0.0008223782316006, -0.0008223371499403 ]
  - [  -0.0040982673326578,  0.0021245670118485, -0.0024444638684032 ]
  - [  -0.0040925780840846,  0.0024542707679065, -0.0021239996602765 ]
  - [  -0.0040925952335145, -0.0024536864688695,  0.0021244331775325 ]
  - [  -0.0040982744812611, -0.0021250196831629,  0.0024443316437471 ]
  - [   0.0161749438683282,  0.0041027228709279, -0.0041028430682403 ]
  - [   0.0033271627560046,  0.0059719918077791,  0.0013185783800675 ]
  - [   0.0025664062164199,  0.0006332572637759, -0.0006311642837572 ]
  - [   0.0033269349141364, -0.0013185367722128, -0.0059721634626435 ]
  - [  -0.0040886677945846, -0.0024599548695800, -0.0021241606317480 ]
  - [  -0.0014412328889334,  0.0001583301405340, -0.0001576005205669 ]
  - [  -0.0040943865506656,  0.0021247287811876,  0.0024504671471967 ]
  - [  -0.0096332544589708, -0.0008228272259648,  0.0008227633375479 ]
  - [  -0.0014468265670756,  0.0001562081882897,  0.0001552811005359 ]
  - [  -0.0014468531285102, -0.0001556107031662, -0.0001554331827663 ]
  - [  -0.0096179930845470, -0.0008093805944137, -0.0008088800356638 ]
  - [  -0.0096179774451378,  0.0008089247630425,  0.0008093167544447 ]
  - [   0.0025664336854946, -0.0006326932852386,  0.0006310307692989 ]
  - [   0.0033271493145581, -0.0059714350482590, -0.0013181473677153 ]
  - [   0.0161749117848156, -0.0041031693825221,  0.0041032881172154 ]
  - [   0.0033269478916471,  0.0013180938085974,  0.0059720337695834 ]
  - [   0.0033286190092157, -0.0059707071632054,  0.0013327184493231 ]
  - [   0.0033286279547919,  0.0059712692585841, -0.0013322848468947 ]
  - [   0.0033284235930292,  0.0013322314984119, -0.0059714385988865 ]
  - [   0.0033284147956505, -0.0013326700995140,  0.0059713049173987 ]
  - [  -0.0014411814542732, -0.0001571806725721, -0.0001570532471499 ]
  - [  -0.0014411590099038,  0.0001577746685191,  0.0001569048241618 ]
  - [  -0.0096331287216149,  0.0008229356634426,  0.0008233258037637 ]
  - [  -0.0096331403069719, -0.0008233874241730, -0.0008228907549532 ]
  - [  -0.0014467829121486,  0.0001556723537647, -0.0001548888815551 ]
  - [  -0.0040926454519715, -0.0024542177902594, -0.0021234643864688 ]
  - [  -0.0096179461270443, -0.0008099108425427,  0.0008098435632690 ]
  - [  -0.0040983131715490,  0.0021240321892123,  0.0024448574870637 ]
  - [   0.0033271234996044,  0.0059714612663448, -0.0013186812691606 ]
  - [   0.0033270944362533, -0.0059708982255933,  0.0013191215503228 ]
  - [   0.0033268807422684, -0.0013190705145414,  0.0059714989730433 ]
  - [   0.0033269107253116,  0.0013186291923555, -0.0059716360452308 ]
  - [   0.0033285187877739, -0.0059701446205002, -0.0013328493372959 ]
  - [   0.0025710398631155, -0.0006340215040742,  0.0006322975614199 ]
  - [   0.0033283338784065,  0.0013327908528025,  0.0059707468320377 ]
  - [   0.0167420244532675, -0.0036152630386989,  0.0036153831364877 ]
  - [  -0.0014468085986615, -0.0001550788234539,  0.0001547590592052 ]
  - [  -0.0040983305357020, -0.0021244900951051, -0.0024449962909765 ]
  - [  -0.0096179313544228,  0.0008094578306116, -0.0008094107108304 ]
  - [  -0.0040926202485435,  0.0024547977859048,  0.0021239048321752 ]
  - [   0.0025664592651621,  0.0006327228807851,  0.0006304998516033 ]
  - [   0.0161749588229052, -0.0041026282593769, -0.0041023145607709 ]
  - [   0.0161749750457689,  0.0041021892564746,  0.0041027429037569 ]
  - [   0.0025664709799250, -0.0006321608218873, -0.0006306287256997 ]
  - [   0.0033285375823031,  0.0059707035383125,  0.0013332757160120 ]
  - [   0.0167420349848783,  0.0036148272379728, -0.0036149555460252 ]
  - [   0.0033283157457025, -0.0013332336970766, -0.0059708667761291 ]
  - [   0.0025710370287129,  0.0006345836765875, -0.0006324253350692 ]
  - [  -0.0040887330635849,  0.0024610922054379, -0.0021236074812011 ]
  - [  -0.0040944747740913,  0.0021241765975379, -0.0024511506021504 ]
  - [  -0.0040945087396382, -0.0021246276585418,  0.0024510259009636 ]
  - [  -0.0040887703556325, -0.0024605110844973,  0.0021240361888613 ]
- atom:   33
  displacement:
    [   0.0100000000000000, -0.0000000000000000,  0.0000000000000000 ]
  forces:
  - [   0.0161557896778537, -0.0041915634440005, -0.0041908778346761 ]
  - [   0.0161426293530404,  0.0041944733409824,  0.0041950346067484 ]
  - [   0.0024353743609341,  0.0021651383237561,  0.0021634084628886 ]
  - [   0.0024731961582278, -0.0021683916941471, -0.0021696086182857 ]
  - [   0.0167074796650707,  0.0034854019455636, -0.0034611745795073 ]
  - [   0.0033727033099558, -0.0012791153491096, -0.0008486794244153 ]
  - [   0.0024513401730820, -0.0021723545886701,  0.0021757093173979 ]
  - [   0.0033692387502288,  0.0008245220785243,  0.0012751820627930 ]
  - [  -0.0040134830983976, -0.0006131217145199, -0.0024663399424480 ]
  - [  -0.0040230893497712,  0.0006173370150469,  0.0024614258365448 ]
  - [  -0.0040123233076353, -0.0024642691944670, -0.0006145815943171 ]
  - [  -0.0040233508834435,  0.0024636070108250,  0.0006166967447502 ]
  - [  -0.0040245479184814,  0.0006306809500079, -0.0024250183116774 ]
  - [  -0.0096091894459227,  0.0059087485451657, -0.0059264230864194 ]
  - [  -0.0040190156853183,  0.0024420218876580, -0.0006191500606634 ]
  - [  -0.0014320258838789, -0.0002060461789598,  0.0001941508107130 ]
  - [   0.0167075398872681, -0.0034608773121304,  0.0034870791638530 ]
  - [   0.0033731795213370, -0.0008474756550770, -0.0012787853357434 ]
  - [   0.0024506762492466,  0.0021763201118539, -0.0021723109999513 ]
  - [   0.0033689102703356,  0.0012758981122898,  0.0008239019421113 ]
  - [  -0.0096690198869529, -0.0060112305797368, -0.0060106560325978 ]
  - [  -0.0014087643147940, -0.0002067207838887, -0.0002080023795607 ]
  - [  -0.0014341448500143,  0.0002047847032298,  0.0002036963411381 ]
  - [  -0.0096180276796725,  0.0060131827898637,  0.0060147868016091 ]
  - [  -0.0040206921703113, -0.0006191775834909,  0.0024397688335833 ]
  - [  -0.0014295570518465,  0.0001944697077498, -0.0002052842127683 ]
  - [  -0.0040249919773640, -0.0024252922009208,  0.0006294215652899 ]
  - [  -0.0096096461645962, -0.0059266855809768,  0.0059094531069093 ]
  - [   0.0033385116016991,  0.0013043017930137, -0.0008341946135294 ]
  - [   0.0033170476222235,  0.0008303038306307, -0.0013005171149940 ]
  - [   0.0033381332747141, -0.0008341681919038,  0.0013046223096495 ]
  - [   0.0033168039419657, -0.0013016894525856,  0.0008298637194314 ]
  - [  -0.1258588224313900,  0.0000015272496390,  0.0000016836987609 ]
  - [  -0.0028601493493315, -0.0014986826662815, -0.0014985222959536 ]
  - [  -0.0012262684492444, -0.0000003443124820, -0.0000001839897763 ]
  - [  -0.0028572754851201,  0.0014972942214218,  0.0014974589398308 ]
  - [   0.0012821846361619,  0.0015035003048078,  0.0037052402166660 ]
  - [  -0.0003084434811479, -0.0002088700385125, -0.0011040411008005 ]
  - [  -0.0003084431285223,  0.0011031866815280,  0.0002081218392007 ]
  - [   0.0012823046856378, -0.0037049920662380, -0.0015018846206034 ]
  - [   0.0015999484393766, -0.0000001862600649,  0.0000006228674611 ]
  - [   0.0029716346797524, -0.0010996095085047,  0.0010993060530721 ]
  - [   0.0015999483912139,  0.0000004573734290, -0.0000000266797077 ]
  - [   0.0029716340780551,  0.0010991418195870, -0.0010994478818462 ]
  - [   0.0012919136834166, -0.0015033575686143,  0.0036769150248284 ]
  - [   0.0012890641079431, -0.0036762389146383,  0.0015024558938199 ]
  - [  -0.0003004785945739, -0.0011022835006879,  0.0002073419825218 ]
  - [  -0.0003001586982051, -0.0002074092048960,  0.0011028342464187 ]
  - [   0.0012821889224266,  0.0037050824260987,  0.0015036617800432 ]
  - [  -0.0003084431638357, -0.0011042031697148, -0.0002087085435685 ]
  - [  -0.0003084435136694,  0.0002079587109545,  0.0011033500626161 ]
  - [   0.0012823071062223, -0.0015020453023694, -0.0037048249085634 ]
  - [   0.0029870052574450,  0.0011180441430554,  0.0011182052509911 ]
  - [   0.0006565373546584, -0.0000006330199616, -0.0000004670051100 ]
  - [   0.0029870375166578, -0.0011172256457882, -0.0011170635591562 ]
  - [   0.0106471293442478, -0.0000003714186248, -0.0000002117443633 ]
  - [  -0.0003004751486610,  0.0002071770969705, -0.0011021196381034 ]
  - [  -0.0003001599602945,  0.0011026709530658, -0.0002072434767807 ]
  - [   0.0012919153485254,  0.0036767456037678, -0.0015031979293703 ]
  - [   0.0012890632433951,  0.0015022950626104, -0.0036760783351607 ]
  - [  -0.0028630277607716,  0.0015048809752697, -0.0015038417707760 ]
  - [  -0.0007062293915193, -0.0000012269401868,  0.0000003324598675 ]
  - [  -0.0028630256694995, -0.0015040058476579,  0.0015050411106172 ]
  - [  -0.0007062305798906,  0.0000001751951053, -0.0000010564686605 ]
  - [  -0.0003887165437649,  0.0008845848789186,  0.0008847440647520 ]
  - [   0.0002838764057826, -0.0000000176939271,  0.0000001493498990 ]
  - [  -0.0003885934884030, -0.0008855106861865, -0.0008853442177388 ]
  - [   0.0442145573838521,  0.0000007558443058,  0.0000009175780789 ]
  - [   0.0010430112945971,  0.0000025305266482, -0.0003581820244726 ]
  - [   0.0010430248650279,  0.0003581726340243, -0.0000017307484354 ]
  - [   0.0025954119188343, -0.0000106546877123,  0.0005452316467343 ]
  - [   0.0025953234197742, -0.0005456205464173,  0.0000105320717236 ]
  - [  -0.0003749472928978, -0.0008701106509406,  0.0008691030059039 ]
  - [  -0.0002485383022203,  0.0000006829845508,  0.0000004610212377 ]
  - [  -0.0003749477539132,  0.0008689364631590, -0.0008699514777561 ]
  - [  -0.0002485375627512,  0.0000003027810171,  0.0000008483604922 ]
  - [  -0.0109734277780741, -0.0001142561780650, -0.0002820434577463 ]
  - [  -0.0009451024922494, -0.0005367838707120, -0.0000009599061538 ]
  - [  -0.0009449099270319,  0.0000011068046695,  0.0005353587097983 ]
  - [  -0.0109707961157876,  0.0002839372501108,  0.0001139195324561 ]
  - [   0.0010430107979185, -0.0003583480419208,  0.0000026914821059 ]
  - [   0.0010430259977488, -0.0000018972946171,  0.0003583404572068 ]
  - [   0.0025954106446426,  0.0005450733208252, -0.0000104872724038 ]
  - [   0.0025953248458231,  0.0000103718061857, -0.0005454617058138 ]
  - [   0.0002854227773176, -0.0000002573321572, -0.0000000883841931 ]
  - [   0.0068124054198108,  0.0063682309584768,  0.0063683989762364 ]
  - [   0.0432917939080526, -0.0000013938319089, -0.0000012357449550 ]
  - [   0.0068092192018307, -0.0063667446646695, -0.0063665827427353 ]
  - [  -0.0009449079323885,  0.0005351911764784,  0.0000012713718083 ]
  - [  -0.0109707975378095,  0.0001137536212767,  0.0002840963382044 ]
  - [  -0.0109734269900699, -0.0002822076679572, -0.0001140958665757 ]
  - [  -0.0009451030904431, -0.0000011198759994, -0.0005366190451687 ]
  - [  -0.0002597827380908, -0.0000010202781441,  0.0000008968984978 ]
  - [   0.0068395356838072, -0.0063738730988495,  0.0063741420037113 ]
  - [  -0.0002597837150522,  0.0000007351464183, -0.0000008603813311 ]
  - [   0.0068395385578857,  0.0063739851294557, -0.0063737088556386 ]
