nqpoint: 200    
npath: 4      
segment_nqpoint:
- 50
- 50
- 50
- 50
labels:
- [ '$\mathrm{\mathsf{\Gamma}}$', '$\mathrm{\mathsf{X}}$' ]
- [ '$\mathrm{\mathsf{X}}$', '$\mathrm{\mathsf{U|K}}$' ]
- [ '$\mathrm{\mathsf{U|K}}$', '$\mathrm{\mathsf{\Gamma}}$' ]
- [ '$\mathrm{\mathsf{\Gamma}}$', '$\mathrm{\mathsf{L}}$' ]
reciprocal_lattice:
- [  -0.18346474,   0.18346474,   0.18346474 ] # a*
- [   0.18346474,  -0.18346474,   0.18346474 ] # b*
- [   0.18346474,   0.18346474,  -0.18346474 ] # c*
natom: 2      
lattice:
- [    -0.000000000000000,     2.725319390000000,     2.725319390000000 ] # a
- [     2.725319390000000,    -0.000000000000000,     2.725319390000000 ] # b
- [     2.725319390000000,     2.725319390000000,     0.000000000000000 ] # c
points:
- symbol: Si # 1
  coordinates: [  0.750000000917324,  0.750000000917324,  0.750000000917324 ]
  mass: 28.085000
- symbol: Si # 2
  coordinates: [  0.500000000000000,  0.500000000000000,  0.500000000000000 ]
  mass: 28.085000
supercell_matrix:
- [   27,   -9,   -9 ]
- [   -9,   27,   -9 ]
- [   -9,   -9,   27 ]

phonon:
- q-position: [    0.0000000,    0.0000000,    0.0000000 ]
  distance:    0.0000000
  band:
  - # 1
    frequency:    0.0000006163
  - # 2
    frequency:    0.0000006218
  - # 3
    frequency:    0.0000006589
  - # 4
    frequency:   15.2965276997
  - # 5
    frequency:   15.2965276997
  - # 6
    frequency:   15.2965276997

- q-position: [    0.0102041,    0.0000000,    0.0102041 ]
  distance:    0.0037442
  band:
  - # 1
    frequency:    0.2010345307
  - # 2
    frequency:    0.2010345307
  - # 3
    frequency:    0.3064356764
  - # 4
    frequency:   15.2926856233
  - # 5
    frequency:   15.2926856233
  - # 6
    frequency:   15.2954709216

- q-position: [    0.0204082,    0.0000000,    0.0204082 ]
  distance:    0.0074884
  band:
  - # 1
    frequency:    0.4015422029
  - # 2
    frequency:    0.4015422029
  - # 3
    frequency:    0.6126926022
  - # 4
    frequency:   15.2812069920
  - # 5
    frequency:   15.2812069920
  - # 6
    frequency:   15.2922985217

- q-position: [    0.0306122,    0.0000000,    0.0306122 ]
  distance:    0.0112325
  band:
  - # 1
    frequency:    0.6009946587
  - # 2
    frequency:    0.6009946587
  - # 3
    frequency:    0.9185921712
  - # 4
    frequency:   15.2622339360
  - # 5
    frequency:   15.2622339360
  - # 6
    frequency:   15.2870043141

- q-position: [    0.0408163,    0.0000000,    0.0408163 ]
  distance:    0.0149767
  band:
  - # 1
    frequency:    0.7988607176
  - # 2
    frequency:    0.7988607176
  - # 3
    frequency:    1.2239560711
  - # 4
    frequency:   15.2360011258
  - # 5
    frequency:   15.2360011258
  - # 6
    frequency:   15.2795780243

- q-position: [    0.0510204,    0.0000000,    0.0510204 ]
  distance:    0.0187209
  band:
  - # 1
    frequency:    0.9946054073
  - # 2
    frequency:    0.9946054073
  - # 3
    frequency:    1.5286064411
  - # 4
    frequency:   15.2028324540
  - # 5
    frequency:   15.2028324540
  - # 6
    frequency:   15.2700053421

- q-position: [    0.0612245,    0.0000000,    0.0612245 ]
  distance:    0.0224651
  band:
  - # 1
    frequency:    1.1876895144
  - # 2
    frequency:    1.1876895144
  - # 3
    frequency:    1.8323660439
  - # 4
    frequency:   15.1631363933
  - # 5
    frequency:   15.1631363933
  - # 6
    frequency:   15.2582679957

- q-position: [    0.0714286,    0.0000000,    0.0714286 ]
  distance:    0.0262092
  band:
  - # 1
    frequency:    1.3775698177
  - # 2
    frequency:    1.3775698177
  - # 3
    frequency:    2.1350584533
  - # 4
    frequency:   15.1174000363
  - # 5
    frequency:   15.1174000363
  - # 6
    frequency:   15.2443438467

- q-position: [    0.0816327,    0.0000000,    0.0816327 ]
  distance:    0.0299534
  band:
  - # 1
    frequency:    1.5637001525
  - # 2
    frequency:    1.5637001525
  - # 3
    frequency:    2.4365082627
  - # 4
    frequency:   15.0661818323
  - # 5
    frequency:   15.0661818323
  - # 6
    frequency:   15.2282070061

- q-position: [    0.0918367,    0.0000000,    0.0918367 ]
  distance:    0.0336976
  band:
  - # 1
    frequency:    1.7455334331
  - # 2
    frequency:    1.7455334331
  - # 3
    frequency:    2.7365413162
  - # 4
    frequency:   15.0101030441
  - # 5
    frequency:   15.0101030441
  - # 6
    frequency:   15.2098279696

- q-position: [    0.1020408,    0.0000000,    0.1020408 ]
  distance:    0.0374418
  band:
  - # 1
    frequency:    1.9225247418
  - # 2
    frequency:    1.9225247418
  - # 3
    frequency:    3.0349849637
  - # 4
    frequency:   14.9498379674
  - # 5
    frequency:   14.9498379674
  - # 6
    frequency:   15.1891737741

- q-position: [    0.1122449,    0.0000000,    0.1122449 ]
  distance:    0.0411860
  band:
  - # 1
    frequency:    2.0941355558
  - # 2
    frequency:    2.0941355558
  - # 3
    frequency:    3.3316683417
  - # 4
    frequency:   14.8861029769
  - # 5
    frequency:   14.8861029769
  - # 6
    frequency:   15.1662081726

- q-position: [    0.1224490,    0.0000000,    0.1224490 ]
  distance:    0.0449301
  band:
  - # 1
    frequency:    2.2598391441
  - # 2
    frequency:    2.2598391441
  - # 3
    frequency:    3.6264226802
  - # 4
    frequency:   14.8196444969
  - # 5
    frequency:   14.8196444969
  - # 6
    frequency:   15.1408918268

- q-position: [    0.1326531,    0.0000000,    0.1326531 ]
  distance:    0.0486743
  band:
  - # 1
    frequency:    2.4191271143
  - # 2
    frequency:    2.4191271143
  - # 3
    frequency:    3.9190816332
  - # 4
    frequency:   14.7512260357
  - # 5
    frequency:   14.7512260357
  - # 6
    frequency:   15.1131825175

- q-position: [    0.1428571,    0.0000000,    0.1428571 ]
  distance:    0.0524185
  band:
  - # 1
    frequency:    2.5715170259
  - # 2
    frequency:    2.5715170259
  - # 3
    frequency:    4.2094816342
  - # 4
    frequency:   14.6816144736
  - # 5
    frequency:   14.6816144736
  - # 6
    frequency:   15.0830353700

- q-position: [    0.1530612,    0.0000000,    0.1530612 ]
  distance:    0.0561627
  band:
  - # 1
    frequency:    2.7165609150
  - # 2
    frequency:    2.7165609150
  - # 3
    frequency:    4.4974622707
  - # 4
    frequency:   14.6115658553
  - # 5
    frequency:   14.6115658553
  - # 6
    frequency:   15.0504030928

- q-position: [    0.1632653,    0.0000000,    0.1632653 ]
  distance:    0.0599069
  band:
  - # 1
    frequency:    2.8538544940
  - # 2
    frequency:    2.8538544940
  - # 3
    frequency:    4.7828666773
  - # 4
    frequency:   14.5418110023
  - # 5
    frequency:   14.5418110023
  - # 6
    frequency:   15.0152362285

- q-position: [    0.1734694,    0.0000000,    0.1734694 ]
  distance:    0.0636510
  band:
  - # 1
    frequency:    2.9830467079
  - # 2
    frequency:    2.9830467079
  - # 3
    frequency:    5.0655419423
  - # 4
    frequency:   14.4730413309
  - # 5
    frequency:   14.4730413309
  - # 6
    frequency:   14.9774834129

- q-position: [    0.1836735,    0.0000000,    0.1836735 ]
  distance:    0.0673952
  band:
  - # 1
    frequency:    3.1038492467
  - # 2
    frequency:    3.1038492467
  - # 3
    frequency:    5.3453395216
  - # 4
    frequency:   14.4058953180
  - # 5
    frequency:   14.4058953180
  - # 6
    frequency:   14.9370916411

- q-position: [    0.1938776,    0.0000000,    0.1938776 ]
  distance:    0.0711394
  band:
  - # 1
    frequency:    3.2160455502
  - # 2
    frequency:    3.2160455502
  - # 3
    frequency:    5.6221156578
  - # 4
    frequency:   14.3409461103
  - # 5
    frequency:   14.3409461103
  - # 6
    frequency:   14.8940065365

- q-position: [    0.2040816,    0.0000000,    0.2040816 ]
  distance:    0.0748836
  band:
  - # 1
    frequency:    3.3194987934
  - # 2
    frequency:    3.3194987934
  - # 3
    frequency:    5.8957317951
  - # 4
    frequency:   14.2786907887
  - # 5
    frequency:   14.2786907887
  - # 6
    frequency:   14.8481726203

- q-position: [    0.2142857,    0.0000000,    0.2142857 ]
  distance:    0.0786277
  band:
  - # 1
    frequency:    3.4141583299
  - # 2
    frequency:    3.4141583299
  - # 3
    frequency:    6.1660549870
  - # 4
    frequency:   14.2195417920
  - # 5
    frequency:   14.2195417920
  - # 6
    frequency:   14.7995335774

- q-position: [    0.2244898,    0.0000000,    0.2244898 ]
  distance:    0.0823719
  band:
  - # 1
    frequency:    3.5000641014
  - # 2
    frequency:    3.5000641014
  - # 3
    frequency:    6.4329582879
  - # 4
    frequency:   14.1638209503
  - # 5
    frequency:   14.1638209503
  - # 6
    frequency:   14.7480325157

- q-position: [    0.2346939,    0.0000000,    0.2346939 ]
  distance:    0.0861161
  band:
  - # 1
    frequency:    3.5773485897
  - # 2
    frequency:    3.5773485897
  - # 3
    frequency:    6.6963211251
  - # 4
    frequency:   14.1117564777
  - # 5
    frequency:   14.1117564777
  - # 6
    frequency:   14.6936122160

- q-position: [    0.2448980,    0.0000000,    0.2448980 ]
  distance:    0.0898603
  band:
  - # 1
    frequency:    3.6462360069
  - # 2
    frequency:    3.6462360069
  - # 3
    frequency:    6.9560296416
  - # 4
    frequency:   14.0634831415
  - # 5
    frequency:   14.0634831415
  - # 6
    frequency:   14.6362153675

- q-position: [    0.2551020,    0.0000000,    0.2551020 ]
  distance:    0.0936045
  band:
  - # 1
    frequency:    3.7070385680
  - # 2
    frequency:    3.7070385680
  - # 3
    frequency:    7.2119770066
  - # 4
    frequency:   14.0190456473
  - # 5
    frequency:   14.0190456473
  - # 6
    frequency:   14.5757847873

- q-position: [    0.2653061,    0.0000000,    0.2653061 ]
  distance:    0.0973486
  band:
  - # 1
    frequency:    3.7601498614
  - # 2
    frequency:    3.7601498614
  - # 3
    frequency:    7.4640636872
  - # 4
    frequency:   13.9784050987
  - # 5
    frequency:   13.9784050987
  - # 6
    frequency:   14.5122636202

- q-position: [    0.2755102,    0.0000000,    0.2755102 ]
  distance:    0.1010928
  band:
  - # 1
    frequency:    3.8060355101
  - # 2
    frequency:    3.8060355101
  - # 3
    frequency:    7.7121976754
  - # 4
    frequency:   13.9414482002
  - # 5
    frequency:   13.9414482002
  - # 6
    frequency:   14.4455955167

- q-position: [    0.2857143,    0.0000000,    0.2857143 ]
  distance:    0.1048370
  band:
  - # 1
    frequency:    3.8452214782
  - # 2
    frequency:    3.8452214782
  - # 3
    frequency:    7.9562946672
  - # 4
    frequency:   13.9079987127
  - # 5
    frequency:   13.9079987127
  - # 6
    frequency:   14.3757247860

- q-position: [    0.2959184,    0.0000000,    0.2959184 ]
  distance:    0.1085812
  band:
  - # 1
    frequency:    3.8782805128
  - # 2
    frequency:    3.8782805128
  - # 3
    frequency:    8.1962781897
  - # 4
    frequency:   13.8778305448
  - # 5
    frequency:   13.8778305448
  - # 6
    frequency:   14.3025965244

- q-position: [    0.3061224,    0.0000000,    0.3061224 ]
  distance:    0.1123253
  band:
  - # 1
    frequency:    3.9058173077
  - # 2
    frequency:    3.9058173077
  - # 3
    frequency:    8.4320796739
  - # 4
    frequency:   13.8506817884
  - # 5
    frequency:   13.8506817884
  - # 6
    frequency:   14.2261567158

- q-position: [    0.3163265,    0.0000000,    0.3163265 ]
  distance:    0.1160695
  band:
  - # 1
    frequency:    3.9284530262
  - # 2
    frequency:    3.9284530262
  - # 3
    frequency:    8.6636384702
  - # 4
    frequency:   13.8262689879
  - # 5
    frequency:   13.8262689879
  - # 6
    frequency:   14.1463523061

- q-position: [    0.3265306,    0.0000000,    0.3265306 ]
  distance:    0.1198137
  band:
  - # 1
    frequency:    3.9468098343
  - # 2
    frequency:    3.9468098343
  - # 3
    frequency:    8.8909018079
  - # 4
    frequency:   13.8043009619
  - # 5
    frequency:   13.8043009619
  - # 6
    frequency:   14.0631312501

- q-position: [    0.3367347,    0.0000000,    0.3367347 ]
  distance:    0.1235579
  band:
  - # 1
    frequency:    3.9614960693
  - # 2
    frequency:    3.9614960693
  - # 3
    frequency:    9.1138246970
  - # 4
    frequency:   13.7844915700
  - # 5
    frequency:   13.7844915700
  - # 6
    frequency:   13.9764425335

- q-position: [    0.3469388,    0.0000000,    0.3469388 ]
  distance:    0.1273021
  band:
  - # 1
    frequency:    3.9730926162
  - # 2
    frequency:    3.9730926162
  - # 3
    frequency:    9.3323697747
  - # 4
    frequency:   13.7665709196
  - # 5
    frequency:   13.7665709196
  - # 6
    frequency:   13.8862361709

- q-position: [    0.3571429,    0.0000000,    0.3571429 ]
  distance:    0.1310462
  band:
  - # 1
    frequency:    3.9821409925
  - # 2
    frequency:    3.9821409925
  - # 3
    frequency:    9.5465070990
  - # 4
    frequency:   13.7502946325
  - # 5
    frequency:   13.7502946325
  - # 6
    frequency:   13.7924631825

- q-position: [    0.3673469,    0.0000000,    0.3673469 ]
  distance:    0.1347904
  band:
  - # 1
    frequency:    3.9891335535
  - # 2
    frequency:    3.9891335535
  - # 3
    frequency:    9.7562138918
  - # 4
    frequency:   13.6950755529
  - # 5
    frequency:   13.7354509156
  - # 6
    frequency:   13.7354509156

- q-position: [    0.3775510,    0.0000000,    0.3775510 ]
  distance:    0.1385346
  band:
  - # 1
    frequency:    3.9945061299
  - # 2
    frequency:    3.9945061299
  - # 3
    frequency:    9.9614742371
  - # 4
    frequency:   13.5940261766
  - # 5
    frequency:   13.7218653080
  - # 6
    frequency:   13.7218653080

- q-position: [    0.3877551,    0.0000000,    0.3877551 ]
  distance:    0.1422788
  band:
  - # 1
    frequency:    3.9986333040
  - # 2
    frequency:    3.9986333040
  - # 3
    frequency:   10.1622787379
  - # 4
    frequency:   13.4892687923
  - # 5
    frequency:   13.7094030916
  - # 6
    frequency:   13.7094030916

- q-position: [    0.3979592,    0.0000000,    0.3979592 ]
  distance:    0.1460230
  band:
  - # 1
    frequency:    4.0018264108
  - # 2
    frequency:    4.0018264108
  - # 3
    frequency:   10.3586241397
  - # 4
    frequency:   13.3807579142
  - # 5
    frequency:   13.6979694565
  - # 6
    frequency:   13.6979694565

- q-position: [    0.4081633,    0.0000000,    0.4081633 ]
  distance:    0.1497671
  band:
  - # 1
    frequency:    4.0043342277
  - # 2
    frequency:    4.0043342277
  - # 3
    frequency:   10.5505129239
  - # 4
    frequency:   13.2684487627
  - # 5
    frequency:   13.6875076056
  - # 6
    frequency:   13.6875076056

- q-position: [    0.4183673,    0.0000000,    0.4183673 ]
  distance:    0.1535113
  band:
  - # 1
    frequency:    4.0063461861
  - # 2
    frequency:    4.0063461861
  - # 3
    frequency:   10.7379528818
  - # 4
    frequency:   13.1522972009
  - # 5
    frequency:   13.6779950555
  - # 6
    frequency:   13.6779950555

- q-position: [    0.4285714,    0.0000000,    0.4285714 ]
  distance:    0.1572555
  band:
  - # 1
    frequency:    4.0079978106
  - # 2
    frequency:    4.0079978106
  - # 3
    frequency:   10.9209566727
  - # 4
    frequency:   13.0322596824
  - # 5
    frequency:   13.6694384605
  - # 6
    frequency:   13.6694384605

- q-position: [    0.4387755,    0.0000000,    0.4387755 ]
  distance:    0.1609997
  band:
  - # 1
    frequency:    4.0093779705
  - # 2
    frequency:    4.0093779705
  - # 3
    frequency:   11.0995413764
  - # 4
    frequency:   12.9082932169
  - # 5
    frequency:   13.6618673326
  - # 6
    frequency:   13.6618673326

- q-position: [    0.4489796,    0.0000000,    0.4489796 ]
  distance:    0.1647438
  band:
  - # 1
    frequency:    4.0105374231
  - # 2
    frequency:    4.0105374231
  - # 3
    frequency:   11.2737280452
  - # 4
    frequency:   12.7803553555
  - # 5
    frequency:   13.6553270708
  - # 6
    frequency:   13.6553270708

- q-position: [    0.4591837,    0.0000000,    0.4591837 ]
  distance:    0.1684880
  band:
  - # 1
    frequency:    4.0114980518
  - # 2
    frequency:    4.0114980518
  - # 3
    frequency:   11.4435412639
  - # 4
    frequency:   12.6484042048
  - # 5
    frequency:   13.6498717318
  - # 6
    frequency:   13.6498717318

- q-position: [    0.4693878,    0.0000000,    0.4693878 ]
  distance:    0.1722322
  band:
  - # 1
    frequency:    4.0122621557
  - # 2
    frequency:    4.0122621557
  - # 3
    frequency:   11.6090087237
  - # 4
    frequency:   12.5123984706
  - # 5
    frequency:   13.6455569796
  - # 6
    frequency:   13.6455569796

- q-position: [    0.4795918,    0.0000000,    0.4795918 ]
  distance:    0.1759764
  band:
  - # 1
    frequency:    4.0128211449
  - # 2
    frequency:    4.0128211449
  - # 3
    frequency:   11.7701608167
  - # 4
    frequency:   12.3722975367
  - # 5
    frequency:   13.6424336348
  - # 6
    frequency:   13.6424336348

- q-position: [    0.4897959,    0.0000000,    0.4897959 ]
  distance:    0.1797206
  band:
  - # 1
    frequency:    4.0131630329
  - # 2
    frequency:    4.0131630329
  - # 3
    frequency:   11.9270302566
  - # 4
    frequency:   12.2280615806
  - # 5
    frequency:   13.6405422076
  - # 6
    frequency:   13.6405422076

- q-position: [    0.5000000,    0.0000000,    0.5000000 ]
  distance:    0.1834647
  band:
  - # 1
    frequency:    4.0132782019
  - # 2
    frequency:    4.0132782019
  - # 3
    frequency:   12.0796517296
  - # 4
    frequency:   12.0796517296
  - # 5
    frequency:   13.6399087401
  - # 6
    frequency:   13.6399087401

- q-position: [    0.5000000,    0.0000000,    0.5000000 ]
  distance:    0.1834647
  band:
  - # 1
    frequency:    4.0132782019
  - # 2
    frequency:    4.0132782019
  - # 3
    frequency:   12.0796517296
  - # 4
    frequency:   12.0796517296
  - # 5
    frequency:   13.6399087401
  - # 6
    frequency:   13.6399087401

- q-position: [    0.5025510,    0.0051020,    0.5025510 ]
  distance:    0.1847885
  band:
  - # 1
    frequency:    4.0134019645
  - # 2
    frequency:    4.0150638508
  - # 3
    frequency:   12.0786046127
  - # 4
    frequency:   12.0788162437
  - # 5
    frequency:   13.6399397926
  - # 6
    frequency:   13.6403343807

- q-position: [    0.5051020,    0.0102041,    0.5051020 ]
  distance:    0.1861123
  band:
  - # 1
    frequency:    4.0137728391
  - # 2
    frequency:    4.0204119562
  - # 3
    frequency:   12.0754669306
  - # 4
    frequency:   12.0763132034
  - # 5
    frequency:   13.6400329074
  - # 6
    frequency:   13.6416084021

- q-position: [    0.5076531,    0.0153061,    0.5076531 ]
  distance:    0.1874360
  band:
  - # 1
    frequency:    4.0143895881
  - # 2
    frequency:    4.0292961121
  - # 3
    frequency:   12.0702496809
  - # 4
    frequency:   12.0721527801
  - # 5
    frequency:   13.6401879575
  - # 6
    frequency:   13.6437221784

- q-position: [    0.5102041,    0.0204082,    0.5102041 ]
  distance:    0.1887598
  band:
  - # 1
    frequency:    4.0152501560
  - # 2
    frequency:    4.0416726978
  - # 3
    frequency:   12.0629711643
  - # 4
    frequency:   12.0663516648
  - # 5
    frequency:   13.6404047320
  - # 6
    frequency:   13.6466615800

- q-position: [    0.5127551,    0.0255102,    0.5127551 ]
  distance:    0.1900836
  band:
  - # 1
    frequency:    4.0163516794
  - # 2
    frequency:    4.0574814478
  - # 3
    frequency:   12.0536569427
  - # 4
    frequency:   12.0589326893
  - # 5
    frequency:   13.6406829389
  - # 6
    frequency:   13.6504073287

- q-position: [    0.5153061,    0.0306122,    0.5153061 ]
  distance:    0.1914073
  band:
  - # 1
    frequency:    4.0176905015
  - # 2
    frequency:    4.0766462214
  - # 3
    frequency:   12.0423397796
  - # 4
    frequency:   12.0499243256
  - # 5
    frequency:   13.6410222072
  - # 6
    frequency:   13.6549354676

- q-position: [    0.5178571,    0.0357143,    0.5178571 ]
  distance:    0.1927311
  band:
  - # 1
    frequency:    4.0192621908
  - # 2
    frequency:    4.0990759467
  - # 3
    frequency:   12.0290595632
  - # 4
    frequency:   12.0393600863
  - # 5
    frequency:   13.6414220910
  - # 6
    frequency:   13.6602179204

- q-position: [    0.5204082,    0.0408163,    0.5204082 ]
  distance:    0.1940549
  band:
  - # 1
    frequency:    4.0210615623
  - # 2
    frequency:    4.1246657086
  - # 3
    frequency:   12.0138632131
  - # 4
    frequency:   12.0272778565
  - # 5
    frequency:   13.6418820732
  - # 6
    frequency:   13.6662231119

- q-position: [    0.5229592,    0.0459184,    0.5229592 ]
  distance:    0.1953786
  band:
  - # 1
    frequency:    4.0230827040
  - # 2
    frequency:    4.1532979477
  - # 3
    frequency:   11.9968045691
  - # 4
    frequency:   12.0137191828
  - # 5
    frequency:   13.6424015712
  - # 6
    frequency:   13.6729166236

- q-position: [    0.5255102,    0.0510204,    0.5255102 ]
  distance:    0.1967024
  band:
  - # 1
    frequency:    4.0253190050
  - # 2
    frequency:    4.1848437361
  - # 3
    frequency:   11.9779442624
  - # 4
    frequency:   11.9987285505
  - # 5
    frequency:   13.6429799419
  - # 6
    frequency:   13.6802618542

- q-position: [    0.5280612,    0.0561224,    0.5280612 ]
  distance:    0.1980262
  band:
  - # 1
    frequency:    4.0277631884
  - # 2
    frequency:    4.2191640963
  - # 3
    frequency:   11.9573495693
  - # 4
    frequency:   11.9823526708
  - # 5
    frequency:   13.6436164885
  - # 6
    frequency:   13.6882206636

- q-position: [    0.5306122,    0.0612245,    0.5306122 ]
  distance:    0.1993499
  band:
  - # 1
    frequency:    4.0304073453
  - # 2
    frequency:    4.2561113317
  - # 3
    frequency:   11.9350942469
  - # 4
    frequency:   11.9646398006
  - # 5
    frequency:   13.6443104673
  - # 6
    frequency:   13.6967539793

- q-position: [    0.5331633,    0.0663265,    0.5331633 ]
  distance:    0.2006737
  band:
  - # 1
    frequency:    4.0332429732
  - # 2
    frequency:    4.2955303407
  - # 3
    frequency:   11.9112583506
  - # 4
    frequency:   11.9456391094
  - # 5
    frequency:   13.6450610952
  - # 6
    frequency:   13.7058223501

- q-position: [    0.5357143,    0.0714286,    0.5357143 ]
  distance:    0.2019975
  band:
  - # 1
    frequency:    4.0362610150
  - # 2
    frequency:    4.3372598902
  - # 3
    frequency:   11.8859280323
  - # 4
    frequency:   11.9254001067
  - # 5
    frequency:   13.6458675577
  - # 6
    frequency:   13.7153864361

- q-position: [    0.5382653,    0.0765306,    0.5382653 ]
  distance:    0.2033212
  band:
  - # 1
    frequency:    4.0394519012
  - # 2
    frequency:    4.3811338282
  - # 3
    frequency:   11.8591953201
  - # 4
    frequency:   11.9039721339
  - # 5
    frequency:   13.6467290179
  - # 6
    frequency:   13.7254074305

- q-position: [    0.5408163,    0.0816327,    0.5408163 ]
  distance:    0.2046450
  band:
  - # 1
    frequency:    4.0428055932
  - # 2
    frequency:    4.4269822220
  - # 3
    frequency:   11.8311578779
  - # 4
    frequency:   11.8814039266
  - # 5
    frequency:   13.6476446246
  - # 6
    frequency:   13.7358474089

- q-position: [    0.5433673,    0.0867347,    0.5433673 ]
  distance:    0.2059688
  band:
  - # 1
    frequency:    4.0463116277
  - # 2
    frequency:    4.4746324097
  - # 3
    frequency:   11.8019187445
  - # 4
    frequency:   11.8577432448
  - # 5
    frequency:   13.6486135225
  - # 6
    frequency:   13.7466696098

- q-position: [    0.5459184,    0.0918367,    0.5459184 ]
  distance:    0.2072925
  band:
  - # 1
    frequency:    4.0499591631
  - # 2
    frequency:    4.5239099616
  - # 3
    frequency:   11.7715860516
  - # 4
    frequency:   11.8330365695
  - # 5
    frequency:   13.6496348615
  - # 6
    frequency:   13.7578386480

- q-position: [    0.5484694,    0.0969388,    0.5484694 ]
  distance:    0.2086163
  band:
  - # 1
    frequency:    4.0537370248
  - # 2
    frequency:    4.5746395471
  - # 3
    frequency:   11.7402727198
  - # 4
    frequency:   11.8073288611
  - # 5
    frequency:   13.6507078067
  - # 6
    frequency:   13.7693206670

- q-position: [    0.5510204,    0.1020408,    0.5510204 ]
  distance:    0.2099401
  band:
  - # 1
    frequency:    4.0576337532
  - # 2
    frequency:    4.6266457112
  - # 3
    frequency:   11.7080961317
  - # 4
    frequency:   11.7806633734
  - # 5
    frequency:   13.6518315483
  - # 6
    frequency:   13.7810834375

- q-position: [    0.5535714,    0.1071429,    0.5535714 ]
  distance:    0.2112638
  band:
  - # 1
    frequency:    4.0616376492
  - # 2
    frequency:    4.6797535625
  - # 3
    frequency:   11.6751777807
  - # 4
    frequency:   11.7530815177
  - # 5
    frequency:   13.6530053124
  - # 6
    frequency:   13.7930964076

- q-position: [    0.5561224,    0.1122449,    0.5561224 ]
  distance:    0.2125876
  band:
  - # 1
    frequency:    4.0657368215
  - # 2
    frequency:    4.7337893809
  - # 3
    frequency:   11.6416428944
  - # 4
    frequency:   11.7246227708
  - # 5
    frequency:   13.6542283711
  - # 6
    frequency:   13.8053307140

- q-position: [    0.5586735,    0.1173469,    0.5586735 ]
  distance:    0.2139114
  band:
  - # 1
    frequency:    4.0699192318
  - # 2
    frequency:    4.7885811526
  - # 3
    frequency:   11.6076200321
  - # 4
    frequency:   11.6953246204
  - # 5
    frequency:   13.6555000528
  - # 6
    frequency:   13.8177591591

- q-position: [    0.5612245,    0.1224490,    0.5612245 ]
  distance:    0.2152351
  band:
  - # 1
    frequency:    4.0741727404
  - # 2
    frequency:    4.8439590425
  - # 3
    frequency:   11.5732406542
  - # 4
    frequency:   11.6652225420
  - # 5
    frequency:   13.6568197530
  - # 6
    frequency:   13.8303561614

- q-position: [    0.5637755,    0.1275510,    0.5637755 ]
  distance:    0.2165589
  band:
  - # 1
    frequency:    4.0784851491
  - # 2
    frequency:    4.8997558123
  - # 3
    frequency:   11.5386386622
  - # 4
    frequency:   11.6343500030
  - # 5
    frequency:   13.6581869442
  - # 6
    frequency:   13.8430976859

- q-position: [    0.5663265,    0.1326531,    0.5663265 ]
  distance:    0.2178827
  band:
  - # 1
    frequency:    4.0828442443
  - # 2
    frequency:    4.9558071976
  - # 3
    frequency:   11.5039499093
  - # 4
    frequency:   11.6027384887
  - # 5
    frequency:   13.6596011864
  - # 6
    frequency:   13.8559611587

- q-position: [    0.5688776,    0.1377551,    0.5688776 ]
  distance:    0.2192064
  band:
  - # 1
    frequency:    4.0872378372
  - # 2
    frequency:    5.0119522511
  - # 3
    frequency:   11.4693116790
  - # 4
    frequency:   11.5704175457
  - # 5
    frequency:   13.6610621368
  - # 6
    frequency:   13.8689253715

- q-position: [    0.5714286,    0.1428571,    0.5714286 ]
  distance:    0.2205302
  band:
  - # 1
    frequency:    4.0916538030
  - # 2
    frequency:    5.0680336642
  - # 3
    frequency:   11.4348621316
  - # 4
    frequency:   11.5374148403
  - # 5
    frequency:   13.6625695598
  - # 6
    frequency:   13.8819703787

- q-position: [    0.5739796,    0.1479592,    0.5739796 ]
  distance:    0.2218540
  band:
  - # 1
    frequency:    4.0960801169
  - # 2
    frequency:    5.1238980750
  - # 3
    frequency:   11.4007397185
  - # 4
    frequency:   11.5037562281
  - # 5
    frequency:   13.6641233364
  - # 6
    frequency:   13.8950773930

- q-position: [    0.5765306,    0.1530612,    0.5765306 ]
  distance:    0.2231777
  band:
  - # 1
    frequency:    4.1005048893
  - # 2
    frequency:    5.1793963717
  - # 3
    frequency:   11.3670825627
  - # 4
    frequency:   11.4694658324
  - # 5
    frequency:   13.6657234728
  - # 6
    frequency:   13.9082286798

- q-position: [    0.5790816,    0.1581633,    0.5790816 ]
  distance:    0.2245015
  band:
  - # 1
    frequency:    4.1049163974
  - # 2
    frequency:    5.2343839977
  - # 3
    frequency:   11.3340278084
  - # 4
    frequency:   11.4345661292
  - # 5
    frequency:   13.6673701097
  - # 6
    frequency:   13.9214074543

- q-position: [    0.5816327,    0.1632653,    0.5816327 ]
  distance:    0.2258253
  band:
  - # 1
    frequency:    4.1093031147
  - # 2
    frequency:    5.2887212650
  - # 3
    frequency:   11.3017109383
  - # 4
    frequency:   11.3990780381
  - # 5
    frequency:   13.6690635302
  - # 6
    frequency:   13.9345977835

- q-position: [    0.5841837,    0.1683673,    0.5841837 ]
  distance:    0.2271490
  band:
  - # 1
    frequency:    4.1136537377
  - # 2
    frequency:    5.3422736805
  - # 3
    frequency:   11.2702650632
  - # 4
    frequency:   11.3630210154
  - # 5
    frequency:   13.6708041674
  - # 6
    frequency:   13.9477844933

- q-position: [    0.5867347,    0.1734694,    0.5867347 ]
  distance:    0.2284728
  band:
  - # 1
    frequency:    4.1179572101
  - # 2
    frequency:    5.3949122861
  - # 3
    frequency:   11.2398201865
  - # 4
    frequency:   11.3264131504
  - # 5
    frequency:   13.6725926118
  - # 6
    frequency:   13.9609530834

- q-position: [    0.5892857,    0.1785714,    0.5892857 ]
  distance:    0.2297966
  band:
  - # 1
    frequency:    4.1222027440
  - # 2
    frequency:    5.4465140157
  - # 3
    frequency:   11.2105024478
  - # 4
    frequency:   11.2892712626
  - # 5
    frequency:   13.6744296177
  - # 6
    frequency:   13.9740896507

- q-position: [    0.5918367,    0.1836735,    0.5918367 ]
  distance:    0.2311203
  band:
  - # 1
    frequency:    4.1263798379
  - # 2
    frequency:    5.4969620655
  - # 3
    frequency:   11.1824333533
  - # 4
    frequency:   11.2516109997
  - # 5
    frequency:   13.6763161094
  - # 6
    frequency:   13.9871808202

- q-position: [    0.5943878,    0.1887755,    0.5943878 ]
  distance:    0.2324441
  band:
  - # 1
    frequency:    4.1304782925
  - # 2
    frequency:    5.5461462761
  - # 3
    frequency:   11.1557289996
  - # 4
    frequency:   11.2134469342
  - # 5
    frequency:   13.6782531862
  - # 6
    frequency:   14.0002136868

- q-position: [    0.5969388,    0.1938776,    0.5969388 ]
  distance:    0.2337679
  band:
  - # 1
    frequency:    4.1344882229
  - # 2