nqpoint: 300    
npath: 6      
segment_nqpoint:
- 50
- 50
- 50
- 50
- 50
- 50
labels:
- [ '$\mathrm{\mathsf{\Gamma}}$', '$\mathrm{\mathsf{X}}$' ]
- [ '$\mathrm{\mathsf{X}}$', '$\mathrm{\mathsf{M}}$' ]
- [ '$\mathrm{\mathsf{M}}$', '$\mathrm{\mathsf{\Gamma}}$' ]
- [ '$\mathrm{\mathsf{\Gamma}}$', '$\mathrm{\mathsf{R}}$' ]
- [ '$\mathrm{\mathsf{R}}$', '$\mathrm{\mathsf{X|M}}$' ]
- [ '$\mathrm{\mathsf{X|M}}$', '$\mathrm{\mathsf{R}}$' ]
reciprocal_lattice:
- [   0.22626092,   0.00000000,   0.00000000 ] # a*
- [   0.00000000,   0.22626092,   0.00000000 ] # b*
- [   0.00000000,   0.00000000,   0.22626092 ] # c*
natom: 5      
lattice:
- [     4.419676180000000,     0.000000000000000,     0.000000000000000 ] # a
- [     0.000000000000000,     4.419676180000000,     0.000000000000000 ] # b
- [     0.000000000000000,     0.000000000000000,     4.419676180000000 ] # c
points:
- symbol: Ca # 1
  coordinates: [  0.500000000000000,  0.500000000000000,  0.500000000000000 ]
  mass: 40.078000
- symbol: F  # 2
  coordinates: [  0.000000000000000,  0.500000000000000,  0.500000000000000 ]
  mass: 18.998403
- symbol: F  # 3
  coordinates: [  0.500000000000000,  0.000000000000000,  0.500000000000000 ]
  mass: 18.998403
- symbol: F  # 4
  coordinates: [  0.500000000000000,  0.500000000000000,  0.000000000000000 ]
  mass: 18.998403
- symbol: K  # 5
  coordinates: [  0.000000000000000,  0.000000000000000,  0.000000000000000 ]
  mass: 39.098300
supercell_matrix:
- [    0,    8,    0 ]
- [   -8,    0,    0 ]
- [    0,    0,    9 ]

phonon:
- q-position: [    0.0000000,    0.0000000,    0.0000000 ]
  distance:    0.0000000
  band:
  - # 1
    frequency:   -1.3707067738
  - # 2
    frequency:   -1.3494802985
  - # 3
    frequency:   -1.3494802985
  - # 4
    frequency:    0.0004257084
  - # 5
    frequency:    0.1754649276
  - # 6
    frequency:    0.1754649276
  - # 7
    frequency:    1.6681100902
  - # 8
    frequency:    1.6681100902
  - # 9
    frequency:    1.6707578400
  - # 10
    frequency:    5.4630840309
  - # 11
    frequency:    5.5780281917
  - # 12
    frequency:    5.5780281917
  - # 13
    frequency:   12.6543201080
  - # 14
    frequency:   12.6925401569
  - # 15
    frequency:   12.6925401569

- q-position: [    0.0000000,    0.0102041,    0.0000000 ]
  distance:    0.0023088
  band:
  - # 1
    frequency:   -1.3702798948
  - # 2
    frequency:   -1.3464983580
  - # 3
    frequency:   -1.3382046788
  - # 4
    frequency:    0.0605453344
  - # 5
    frequency:    0.1964080839
  - # 6
    frequency:    0.2344805941
  - # 7
    frequency:    1.6690769862
  - # 8
    frequency:    1.6699344911
  - # 9
    frequency:    1.6717019396
  - # 10
    frequency:    5.4625667603
  - # 11
    frequency:    5.5776229653
  - # 12
    frequency:    5.5821311502
  - # 13
    frequency:   12.6543086235
  - # 14
    frequency:   12.6928394231
  - # 15
    frequency:   12.6948520624

- q-position: [    0.0000000,    0.0204082,    0.0000000 ]
  distance:    0.0046176
  band:
  - # 1
    frequency:   -1.3689998083
  - # 2
    frequency:   -1.3375749215
  - # 3
    frequency:   -1.3040087617
  - # 4
    frequency:    0.1208186701
  - # 5
    frequency:    0.2482367212
  - # 6
    frequency:    0.3570759603
  - # 7
    frequency:    1.6720509738
  - # 8
    frequency:    1.6745465413
  - # 9
    frequency:    1.6753779692
  - # 10
    frequency:    5.4610153061
  - # 11
    frequency:    5.5764064469
  - # 12
    frequency:    5.5944378203
  - # 13
    frequency:   12.6542742103
  - # 14
    frequency:   12.6937329253
  - # 15
    frequency:   12.7017683516

- q-position: [    0.0000000,    0.0306122,    0.0000000 ]
  distance:    0.0069264
  band:
  - # 1
    frequency:   -1.3668681636
  - # 2
    frequency:   -1.3227767642
  - # 3
    frequency:   -1.2456860759
  - # 4
    frequency:    0.1805516047
  - # 5
    frequency:    0.3145837311
  - # 6
    frequency:    0.4981986699
  - # 7
    frequency:    1.6772515225
  - # 8
    frequency:    1.6793282814
  - # 9
    frequency:    1.6843528857
  - # 10
    frequency:    5.4584307444
  - # 11
    frequency:    5.5743761109
  - # 12
    frequency:    5.6149409867
  - # 13
    frequency:   12.6542169889
  - # 14
    frequency:   12.6952078146
  - # 15
    frequency:   12.7132308249

- q-position: [    0.0000000,    0.0408163,    0.0000000 ]
  distance:    0.0092351
  band:
  - # 1
    frequency:   -1.3638877057
  - # 2
    frequency:   -1.3022139823
  - # 3
    frequency:   -1.1608282574
  - # 4
    frequency:    0.2394701585
  - # 5
    frequency:    0.3859950331
  - # 6
    frequency:    0.6456694534
  - # 7
    frequency:    1.6850415858
  - # 8
    frequency:    1.6861072593
  - # 9
    frequency:    1.6967181963
  - # 10
    frequency:    5.4548148777
  - # 11
    frequency:    5.5715277238
  - # 12
    frequency:    5.6436266631
  - # 13
    frequency:   12.6541371605
  - # 14
    frequency:   12.6972428122
  - # 15
    frequency:   12.7291427632

- q-position: [    0.0000000,    0.0510204,    0.0000000 ]
  distance:    0.0115439
  band:
  - # 1
    frequency:   -1.3600622688
  - # 2
    frequency:   -1.2760384521
  - # 3
    frequency:   -1.0449032030
  - # 4
    frequency:    0.2972977589
  - # 5
    frequency:    0.4576670883
  - # 6
    frequency:    0.7958832161
  - # 7
    frequency:    1.6949654319
  - # 8
    frequency:    1.6959183777
  - # 9
    frequency:    1.7122866835
  - # 10
    frequency:    5.4501702494
  - # 11
    frequency:    5.5678553081
  - # 12
    frequency:    5.6804712851
  - # 13
    frequency:   12.6540350059
  - # 14
    frequency:   12.6998084156
  - # 15
    frequency:   12.7493693647

- q-position: [    0.0000000,    0.0612245,    0.0000000 ]
  distance:    0.0138527
  band:
  - # 1
    frequency:   -1.3553967703
  - # 2
    frequency:   -1.2444422322
  - # 3
    frequency:   -0.8887270043
  - # 4
    frequency:    0.3537555440
  - # 5
    frequency:    0.5267945426
  - # 6
    frequency:    0.9475453244
  - # 7
    frequency:    1.7060040513
  - # 8
    frequency:    1.7104905165
  - # 9
    frequency:    1.7308346295
  - # 10
    frequency:    5.4445001637
  - # 11
    frequency:    5.5633510944
  - # 12
    frequency:    5.7254380458
  - # 13
    frequency:   12.6539108858
  - # 14
    frequency:   12.7028671925
  - # 15
    frequency:   12.7737383933

- q-position: [    0.0000000,    0.0714286,    0.0000000 ]
  distance:    0.0161615
  band:
  - # 1
    frequency:   -1.3498972061
  - # 2
    frequency:   -1.2076565839
  - # 3
    frequency:   -0.6692514850
  - # 4
    frequency:    0.4085642048
  - # 5
    frequency:    0.5914443980
  - # 6
    frequency:    1.1001606063
  - # 7
    frequency:    1.7193398814
  - # 8
    frequency:    1.7294328041
  - # 9
    frequency:    1.7521138771
  - # 10
    frequency:    5.4378087128
  - # 11
    frequency:    5.5580054647
  - # 12
    frequency:    5.7784726371
  - # 13
    frequency:   12.6537652399
  - # 14
    frequency:   12.7063741660
  - # 15
    frequency:   12.8020410648

- q-position: [    0.0000000,    0.0816327,    0.0000000 ]
  distance:    0.0184703
  band:
  - # 1
    frequency:   -1.3435706478
  - # 2
    frequency:   -1.1659526497
  - # 3
    frequency:   -0.2707549120
  - # 4
    frequency:    0.4614474757
  - # 5
    frequency:    0.6501595361
  - # 6
    frequency:    1.2535323192
  - # 7
    frequency:    1.7350999347
  - # 8
    frequency:    1.7534119177
  - # 9
    frequency:    1.7758670747
  - # 10
    frequency:    5.4301008098
  - # 11
    frequency:    5.5518068924
  - # 12
    frequency:    5.8394987174
  - # 13
    frequency:   12.6535985866
  - # 14
    frequency:   12.7102772959
  - # 15
    frequency:   12.8340332081

- q-position: [    0.0000000,    0.0918367,    0.0000000 ]
  distance:    0.0207791
  band:
  - # 1
    frequency:   -1.3364252444
  - # 2
    frequency:   -1.1196453365
  - # 3
    frequency:    0.5121374416
  - # 4
    frequency:    0.5710045694
  - # 5
    frequency:    0.7018631053
  - # 6
    frequency:    1.4075023596
  - # 7
    frequency:    1.7534145607
  - # 8
    frequency:    1.7829849577
  - # 9
    frequency:    1.8018498718
  - # 10
    frequency:    5.4213822306
  - # 11
    frequency:    5.5447418857
  - # 12
    frequency:    5.9084134717
  - # 13
    frequency:   12.6534115216
  - # 14
    frequency:   12.7145180594
  - # 15
    frequency:   12.8694367336

- q-position: [    0.0000000,    0.1020408,    0.0000000 ]
  distance:    0.0230878
  band:
  - # 1
    frequency:   -1.3284702299
  - # 2
    frequency:   -1.0691026828
  - # 3
    frequency:    0.5603816328
  - # 4
    frequency:    0.7458857712
  - # 5
    frequency:    0.8615619006
  - # 6
    frequency:    1.5617448921
  - # 7
    frequency:    1.7744089121
  - # 8
    frequency:    1.8184881816
  - # 9
    frequency:    1.8298776205
  - # 10
    frequency:    5.4116596631
  - # 11
    frequency:    5.5367949462
  - # 12
    frequency:    5.9850836412
  - # 13
    frequency:   12.6532047176
  - # 14
    frequency:   12.7190321342
  - # 15
    frequency:   12.9079414392

- q-position: [    0.0000000,    0.1122449,    0.0000000 ]
  distance:    0.0253966
  band:
  - # 1
    frequency:   -1.3197159370
  - # 2
    frequency:   -1.0147640397
  - # 3
    frequency:    0.6059515710
  - # 4
    frequency:    0.7820228641
  - # 5
    frequency:    1.0808393144
  - # 6
    frequency:    1.7154797813
  - # 7
    frequency:    1.7981931189
  - # 8
    frequency:    1.8599481050
  - # 9
    frequency:    1.8600260972
  - # 10
    frequency:    5.4009407667
  - # 11
    frequency:    5.5279485562
  - # 12
    frequency:    6.0693423749
  - # 13
    frequency:   12.6529789228
  - # 14
    frequency:   12.7237501852
  - # 15
    frequency:   12.9492071774

- q-position: [    0.0000000,    0.1224490,    0.0000000 ]
  distance:    0.0277054
  band:
  - # 1
    frequency:   -1.3101738191
  - # 2
    frequency:   -0.9571718622
  - # 3
    frequency:    0.6486520502
  - # 4
    frequency:    0.8105633630
  - # 5
    frequency:    1.2640022261
  - # 6
    frequency:    1.8248518725
  - # 7
    frequency:    1.8630665303
  - # 8
    frequency:    1.8970661224
  - # 9
    frequency:    1.9070482850
  - # 10
    frequency:    5.3892342417
  - # 11
    frequency:    5.5181832115
  - # 12
    frequency:    6.1609871907
  - # 13
    frequency:   12.6527349593
  - # 14
    frequency:   12.7285987525
  - # 15
    frequency:   12.9928663981

- q-position: [    0.0000000,    0.1326531,    0.0000000 ]
  distance:    0.0300142
  band:
  - # 1
    frequency:   -1.2998564808
  - # 2
    frequency:   -0.8970236774
  - # 3
    frequency:    0.6883300801
  - # 4
    frequency:    0.8322651268
  - # 5
    frequency:    1.4232386645
  - # 6
    frequency:    1.8544344808
  - # 7
    frequency:    1.9205416572
  - # 8
    frequency:    1.9591656404
  - # 9
    frequency:    2.0240808059
  - # 10
    frequency:    5.3765499112
  - # 11
    frequency:    5.5074775207
  - # 12
    frequency:    6.2597792274
  - # 13
    frequency:   12.6524737218
  - # 14
    frequency:   12.7335012377
  - # 15
    frequency:   13.0385270669

- q-position: [    0.0000000,    0.1428571,    0.0000000 ]
  distance:    0.0323230
  band:
  - # 1
    frequency:   -1.2887777184
  - # 2
    frequency:   -0.8352520255
  - # 3
    frequency:    0.7248822080
  - # 4
    frequency:    0.8482833754
  - # 5
    frequency:    1.5642933569
  - # 6
    frequency:    1.8869466607
  - # 7
    frequency:    1.9560812560
  - # 8
    frequency:    2.0154608197
  - # 9
    frequency:    2.1722554833
  - # 10
    frequency:    5.3628988164
  - # 11
    frequency:    5.4958083923
  - # 12
    frequency:    6.3654438406
  - # 13
    frequency:   12.6521961757
  - # 14
    frequency:   12.7383789791
  - # 15
    frequency:   13.0857759502

- q-position: [    0.0000000,    0.1530612,    0.0000000 ]
  distance:    0.0346318
  band:
  - # 1
    frequency:   -1.2769525726
  - # 2
    frequency:   -0.7731380935
  - # 3
    frequency:    0.7582589966
  - # 4
    frequency:    0.8600752905
  - # 5
    frequency:    1.6899004949
  - # 6
    frequency:    1.9223452763
  - # 7
    frequency:    1.9934903320
  - # 8
    frequency:    2.0749884972
  - # 9
    frequency:    2.3177376614
  - # 10
    frequency:    5.3482933284
  - # 11
    frequency:    5.4831513337
  - # 12
    frequency:    6.4776724567
  - # 13
    frequency:   12.6519033545
  - # 14
    frequency:   12.7431524060
  - # 15
    frequency:   13.1341822401

- q-position: [    0.0000000,    0.1632653,    0.0000000 ]
  distance:    0.0369406
  band:
  - # 1
    frequency:   -1.2643973937
  - # 2
    frequency:   -0.7124525136
  - # 3
    frequency:    0.7884658139
  - # 4
    frequency:    0.8692937381
  - # 5
    frequency:    1.8005505688
  - # 6
    frequency:    1.9605368521
  - # 7
    frequency:    2.0350243167
  - # 8
    frequency:    2.1367955235
  - # 9
    frequency:    2.4593414698
  - # 10
    frequency:    5.3327472765
  - # 11
    frequency:    5.4694808833
  - # 12
    frequency:    6.5961254747
  - # 13
    frequency:   12.6515963578
  - # 14
    frequency:   12.7477422580
  - # 15
    frequency:   13.1833014844

- q-position: [    0.0000000,    0.1734694,    0.0000000 ]
  distance:    0.0392493
  band:
  - # 1
    frequency:   -1.2511299221
  - # 2
    frequency:   -0.6555820643
  - # 3
    frequency:    0.8155597176
  - # 4
    frequency:    0.8776581419
  - # 5
    frequency:    1.8944567225
  - # 6
    frequency:    2.0013800643
  - # 7
    frequency:    2.0840296029
  - # 8
    frequency:    2.1999900595
  - # 9
    frequency:    2.5964876089
  - # 10
    frequency:    5.3162760991
  - # 11
    frequency:    5.4547711977
  - # 12
    frequency:    6.7204359145
  - # 13
    frequency:   12.6512763482
  - # 14
    frequency:   12.7520708492
  - # 15
    frequency:   13.2326797730

- q-position: [    0.0000000,    0.1836735,    0.0000000 ]
  distance:    0.0415581
  band:
  - # 1
    frequency:   -1.2371693874
  - # 2
    frequency:   -0.6055339383
  - # 3
    frequency:    0.8396429114
  - # 4
    frequency:    0.8867750203
  - # 5
    frequency:    1.9688854364
  - # 6
    frequency:    2.0446917224
  - # 7
    frequency:    2.1442806359
  - # 8
    frequency:    2.2637800793
  - # 9
    frequency:    2.7287990626
  - # 10
    frequency:    5.2988970176
  - # 11
    frequency:    5.4389968085
  - # 12
    frequency:    6.8502134620
  - # 13
    frequency:   12.6509445483
  - # 14
    frequency:   12.7560633593
  - # 15
    frequency:   13.2818581272

- q-position: [    0.0000000,    0.1938776,    0.0000000 ]
  distance:    0.0438669
  band:
  - # 1
    frequency:   -1.2225366282
  - # 2
    frequency:   -0.5656376038
  - # 3
    frequency:    0.8608538025
  - # 4
    frequency:    0.8979025793
  - # 5
    frequency:    2.0248889462
  - # 6
    frequency:    2.0902551965
  - # 7
    frequency:    2.2154625897
  - # 8
    frequency:    2.3274880124
  - # 9
    frequency:    2.8560242085
  - # 10
    frequency:    5.2806292383
  - # 11
    frequency:    5.4221335602
  - # 12
    frequency:    6.9850485594
  - # 13
    frequency:   12.6506022370
  - # 14
    frequency:   12.7596491261
  - # 15
    frequency:   13.3303770317

- q-position: [    0.0000000,    0.2040816,    0.0000000 ]
  distance:    0.0461757
  band:
  - # 1
    frequency:   -1.2072542368
  - # 2
    frequency:   -0.5388092359
  - # 3
    frequency:    0.8793569547
  - # 4
    frequency:    0.9117202504
  - # 5
    frequency:    2.0682080012
  - # 6
    frequency:    2.1378299891
  - # 7
    frequency:    2.2923825262
  - # 8
    frequency:    2.3905501812
  - # 9
    frequency:    2.9779995674
  - # 10
    frequency:    5.2614941880
  - # 11
    frequency:    5.4041597330
  - # 12
    frequency:    7.1245162330
  - # 13
    frequency:   12.6502507457
  - # 14
    frequency:   12.7627629167
  - # 15
    frequency:   13.3777810503

- q-position: [    0.0000000,    0.2142857,    0.0000000 ]
  distance:    0.0484845
  band:
  - # 1
    frequency:   -1.1913467342
  - # 2
    frequency:   -0.5265602269
  - # 3
    frequency:    0.8953331734
  - # 4
    frequency:    0.9282223928
  - # 5
    frequency:    2.1041298093
  - # 6
    frequency:    2.1871612002
  - # 7
    frequency:    2.3701795398
  - # 8
    frequency:    2.4525081630
  - # 9
    frequency:    3.0946257957
  - # 10
    frequency:    5.2415157857
  - # 11
    frequency:    5.3850573440
  - # 12
    frequency:    7.2681794101
  - # 13
    frequency:   12.6498914544
  - # 14
    frequency:   12.7653461483
  - # 15
    frequency:   13.4236234690

- q-position: [    0.0000000,    0.2244898,    0.0000000 ]
  distance:    0.0507933
  band:
  - # 1
    frequency:   -1.1748407792
  - # 2
    frequency:   -0.5283581028
  - # 3
    frequency:    0.9089706783
  - # 4
    frequency:    0.9468165515
  - # 5
    frequency:    2.1355870139
  - # 6
    frequency:    2.2379879242
  - # 7
    frequency:    2.4462679605
  - # 8
    frequency:    2.5129968211
  - # 9
    frequency:    3.2058513776
  - # 10
    frequency:    5.2207207601
  - # 11
    frequency:    5.3648136167
  - # 12
    frequency:    7.4155915652
  - # 13
    frequency:   12.6495257865
  - # 14
    frequency:   12.7673480349
  - # 15
    frequency:   13.4674709155

- q-position: [    0.0000000,    0.2346939,    0.0000000 ]
  distance:    0.0531021
  band:
  - # 1
    frequency:   -1.1577654194
  - # 2
    frequency:   -0.5418677630
  - # 3
    frequency:    0.9204579271
  - # 4
    frequency:    0.9665764979
  - # 5
    frequency:    2.1639977086
  - # 6
    frequency:    2.2900500006
  - # 7
    frequency:    2.5195237593
  - # 8
    frequency:    2.5717317180
  - # 9
    frequency:    3.3116615074
  - # 10
    frequency:    5.1991390179
  - # 11
    frequency:    5.3434225954
  - # 12
    frequency:    7.5662986021
  - # 13
    frequency:   12.6491552043
  - # 14
    frequency:   12.7687266321
  - # 15
    frequency:   13.5089079157

- q-position: [    0.0000000,    0.2448980,    0.0000000 ]
  distance:    0.0554108
  band:
  - # 1
    frequency:   -1.1401523900
  - # 2
    frequency:   -0.5638734779
  - # 3
    frequency:    0.9299782919
  - # 4
    frequency:    0.9865123889
  - # 5
    frequency:    2.1900555966
  - # 6
    frequency:    2.3430929104
  - # 7
    frequency:    2.5895109797
  - # 8
    frequency:    2.6284972425
  - # 9
    frequency:    3.4120704946
  - # 10
    frequency:    5.1768040726
  - # 11
    frequency:    5.3208868776
  - # 12
    frequency:    7.7198399515
  - # 13
    frequency:   12.6487812033
  - # 14
    frequency:   12.7694497557
  - # 15
    frequency:   13.5475413598

- q-position: [    0.0000000,    0.2551020,    0.0000000 ]
  distance:    0.0577196
  band:
  - # 1
    frequency:   -1.1220364691
  - # 2
    frequency:   -0.5912001445
  - # 3
    frequency:    0.9377065104
  - # 4
    frequency:    1.0057533595
  - # 5
    frequency:    2.2141200123
  - # 6
    frequency:    2.3968708822
  - # 7
    frequency:    2.6561021357
  - # 8
    frequency:    2.6831359685
  - # 9
    frequency:    3.5071165067
  - # 10
    frequency:    5.1537535436
  - # 11
    frequency:    5.2972194299
  - # 12
    frequency:    7.8757489028
  - # 13
    frequency:   12.6484053068
  - # 14
    frequency:   12.7694957507
  - # 15
    frequency:   13.5830048642

- q-position: [    0.0000000,    0.2653061,    0.0000000 ]
  distance:    0.0600284
  band:
  - # 1
    frequency:   -1.1034558986
  - # 2
    frequency:   -0.6212149761
  - # 3
    frequency:    0.9438066725
  - # 4
    frequency:    1.0236235626
  - # 5
    frequency:    2.2363916088
  - # 6
    frequency:    2.4511484373
  - # 7
    frequency:    2.7193090653
  - # 8
    frequency:    2.7355393313
  - # 9
    frequency:    3.5968578201
  - # 10
    frequency:    5.1300297368
  - # 11
    frequency:    5.2724454493
  - # 12
    frequency:    8.0335522175
  - # 13
    frequency:   12.6480290596
  - # 14
    frequency:   12.7688540907
  - # 15
    frequency:   13.6149630336

- q-position: [    0.0000000,    0.2755102,    0.0000000 ]
  distance:    0.0623372
  band:
  - # 1
    frequency:   -1.0844528793
  - # 2
    frequency:   -0.6519387081
  - # 3
    frequency:    0.9484314315
  - # 4
    frequency:    1.0396449422
  - # 5
    frequency:    2.2569935313
  - # 6
    frequency:    2.5057006703
  - # 7
    frequency:    2.7792058655
  - # 8
    frequency:    2.7856395055
  - # 9
    frequency:    3.6813700181
  - # 10
    frequency:    5.1056803212
  - # 11
    frequency:    5.2466042273
  - # 12
    frequency:    8.1927690794
  - # 13
    frequency:   12.6476540220
  - # 14
    frequency:   12.7675257891
  - # 15
    frequency:   13.6431156436

- q-position: [    0.0000000,    0.2857143,    0.0000000 ]
  distance:    0.0646460
  band:
  - # 1
    frequency:   -1.0650741511
  - # 2
    frequency:   -0.6819597078
  - # 3
    frequency:    0.9517221314
  - # 4
    frequency:    1.0535062008
  - # 5
    frequency:    2.2760108438
  - # 6
    frequency:    2.5603125596
  - # 7
    frequency:    2.8334022947
  - # 8
    frequency:    2.8358920502
  - # 9
    frequency:    3.7607437645
  - # 10
    frequency:    5.0807591143
  - # 11
    frequency:    5.2197509771
  - # 12
    frequency:    8.3529094281
  - # 13
    frequency:   12.6472817625
  - # 14
    frequency:   12.7655236096
  - # 15
    frequency:   13.6672017843

- q-position: [    0.0000000,    0.2959184,    0.0000000 ]
  distance:    0.0669548
  band:
  - # 1
    frequency:   -1.0453716678
  - # 2
    frequency:   -0.7102967903
  - # 3
    frequency:    0.9538095761
  - # 4
    frequency:    1.0650237536
  - # 5
    frequency:    2.2935106040
  - # 6
    frequency:    2.6147775658
  - # 7
    frequency:    2.8788208303
  - # 8
    frequency:    2.8894741059
  - # 9
    frequency:    3.8350829146
  - # 10
    frequency:    5.0553269942
  - # 11
    frequency:    5.1919585786
  - # 12
    frequency:    8.5134717063
  - # 13
    frequency:   12.6469138518
  - # 14
    frequency:   12.7628720648
  - # 15
    frequency:   13.6870040231

- q-position: [    0.0000000,    0.3061224,    0.0000000 ]
  distance:    0.0692635
  band:
  - # 1
    frequency:   -1.0254033752
  - # 2
    frequency:   -0.7362760099
  - # 3
    frequency:    0.9548152186
  - # 4
    frequency:    1.0741067064
  - # 5
    frequency:    2.3095524330
  - # 6
    frequency:    2.6688957197
  - # 7
    frequency:    2.9219098943
  - # 8
    frequency:    2.9400559486
  - # 9
    frequency:    3.9045028124
  - # 10
    frequency:    5.0294529544
  - # 11
    frequency:    5.1633192025
  - # 12
    frequency:    8.6739400282
  - # 13
    frequency:   12.6465518548
  - # 14
    frequency:   12.7596071977
  - # 15
    frequency:   13.7023526651

- q-position: [    0.0000000,    0.3163265,    0.0000000 ]
  distance:    0.0715723
  band:
  - # 1
    frequency:   -1.0052340974
  - # 2
    frequency:   -0.7594385471
  - # 3
    frequency:    0.9548526021
  - # 4
    frequency:    1.0807296429
  - # 5
    frequency:    2.3241941475
  - # 6
    frequency:    2.7224713511
  - # 7
    frequency:    2.9627007102
  - # 8
    frequency:    2.9877339361
  - # 9
    frequency:    3.9691286840
  - # 10
    frequency:    5.0032153186
  - # 11
    frequency:    5.1339457707
  - # 12
    frequency:    8.8337807497
  - # 13
    frequency:   12.6461973239
  - # 14
    frequency:   12.7557761437
  - # 15
    frequency:   13.7131302066

- q-position: [    0.0000000,    0.3265306,    0.0000000 ]
  distance:    0.0738811
  band:
  - # 1
    frequency:   -0.9849365343
  - # 2
    frequency:   -0.7794776572
  - # 3
    frequency:    0.9540289258
  - # 4
    frequency:    1.0849132748
  - # 5
    frequency:    2.3374946881
  - # 6
    frequency:    2.7753105593
  - # 7
    frequency:    3.0012360790
  - # 8
    frequency:    3.0325943359
  - # 9
    frequency:    4.0290940698
  - # 10
    frequency:    4.9767031301
  - # 11
    frequency:    5.1039732116
  - # 12
    frequency:    8.9924383941
  - # 13
    frequency:   12.6458517912
  - # 14
    frequency:   12.7514364780
  - # 15
    frequency:   13.7192760956

- q-position: [    0.0000000,    0.3367347,    0.0000000 ]
  distance:    0.0761899
  band:
  - # 1
    frequency:   -0.9645923599
  - # 2
    frequency:   -0.7961978239
  - # 3
    frequency:    0.9524466463
  - # 4
    frequency:    1.0867117654
  - # 5
    frequency:    2.3495154937
  - # 6
    frequency:    2.8272184985
  - # 7
    frequency:    3.0375657702
  - # 8
    frequency:    3.0747121844
  - # 9
    frequency:    4.0845392632
  - # 10
    frequency:    4.9500177242
  - # 11
    frequency:    5.0735594664
  - # 12
    frequency:    9.1493308703
  - # 13
    frequency:   12.6455167612
  - # 14
    frequency:   12.7466553535
  - # 15
    frequency:   13.7207919230

- q-position: [    0.0000000,    0.3469388,    0.0000000 ]
  distance:    0.0784987
  band:
  - # 1
    frequency:   -0.9442934044
  - # 2
    frequency:   -0.8094896357
  - # 3
    frequency:    0.9502050449
  - # 4
    frequency:    1.0862053823
  - # 5
    frequency:    2.3603209424
  - # 6
    frequency:    2.8779965273
  - # 7
    frequency:    3.0717421135
  - # 8
    frequency:    3.1141509723
  - # 9
    frequency:    4.1356097376
  - # 10
    frequency:    4.9232744845
  - # 11
    frequency:    5.0428861946
  - # 12
    frequency:    9.3038439035
  - # 13
    frequency:   12.6451937030
  - # 14
    frequency:   12.7415084431
  - # 15
    frequency:   13.7177471727

- q-position: [    0.0000000,    0.3571429,    0.0000000 ]
  distance:    0.0808075
  band:
  - # 1
    frequency:   -0.9241428788
  - # 2
    frequency:   -0.8193155371
  - # 3
    frequency:    0.9474017044
  - # 4
    frequency:    1.0834973573
  - # 5
    frequency:    2.3699782105
  - # 6
    frequency:    2.9274392709
  - # 7
    frequency:    3.1038157724
  - # 8
    frequency:    3.1509628452
  - # 9
    frequency:    4.1824545469
  - # 10
    frequency:    4.8966047633
  - # 11
    frequency:    5.0121591171
  - # 12
    frequency:    9.4553246110
  - # 13
    frequency:   12.6448840431
  - # 14
    frequency:   12.7360787022
  - # 15
    frequency:   13.7102856443

- q-position: [    0.0000000,    0.3673469,    0.0000000 ]
  distance:    0.0831163
  band:
  - # 1
    frequency:   -0.9042565770
  - # 2
    frequency:   -0.8257031665
  - # 3
    frequency:    0.9441338429
  - # 4
    frequency:    1.0787141235
  - # 5
    frequency:    2.3785567554
  - # 6
    frequency:    2.9753316585
  - # 7
    frequency:    3.1338317206
  - # 8
    frequency:    3.1851891400
  - # 9
    frequency:    4.2252246961
  - # 10
    frequency:    4.8701579177
  - # 11
    frequency:    4.9816079191
  - # 12
    frequency:    9.6030741882
  - # 13
    frequency:   12.6445891573
  - # 14
    frequency:   12.7304549711
  - # 15
    frequency:   13.6986326191

- q-position: [    0.0000000,    0.3775510,    0.0000000 ]
  distance:    0.0854250
  band:
  - # 1
    frequency:   -0.8847639569
  - # 2
    frequency:   -0.8287441639
  - # 3
    frequency:    0.9404994462
  - # 4
    frequency:    1.0720083404
  - # 5
    frequency:    2.3861275541
  - # 6
    frequency:    3.0214460328
  - # 7
    frequency:    3.1618254897
  - # 8
    frequency:    3.2168611512
  - # 9
    frequency:    4.2640714774
  - # 10
    frequency:    4.8441033706
  - # 11
    frequency:    4.9514856109
  - # 12
    frequency:    9.7463397627
  - # 13
    frequency:   12.6443103642
  - # 14
    frequency:   12.7247304428
  - # 15
    frequency:   13.6831027459

- q-position: [    0.0000000,    0.3877551,    0.0000000 ]
  distance:    0.0877338
  band:
  - # 1
    frequency:   -0.8658089534
  - # 2
    frequency:   -0.8285971091
  - # 3
    frequency:    0.9365981313
  - # 4
    frequency:    1.0635642693
  - # 5
    frequency:    2.3927621813
  - # 6
    frequency:    3.0655394887
  - # 7
    frequency:    3.1878198056
  - # 8
    frequency:    3.2460010610
  - # 9
    frequency:    4.2991447724
  - # 10
    frequency:    4.8186325378
  - # 11
    frequency:    4.9220672173
  - # 12
    frequency:    9.8843056391
  - # 13
    frequency:   12.6440489171
  - # 14
    frequency:   12.7190010223
  - # 15
    frequency:   13.6641084502

- q-position: [    0.0000000,    0.3979592,    0.0000000 ]
  distance:    0.0900426
  band:
  - # 1
    frequency:   -0.8475503307
  - # 2
    frequency:   -0.8254936798
  - # 3
    frequency:    0.9325316636
  - # 4
    frequency:    1.0536050876
  - # 5
    frequency:    2.3985317888
  - # 6
    frequency:    3.1073516825
  - # 7
    frequency:    3.2118217839
  - # 8
    frequency:    3.2726229884
  - # 9
    frequency:    4.3305913251
  - # 10
    frequency:    4.7939603749
  - # 11
    frequency:    4.8936476347
  - # 12
    frequency:   10.0160844555
  - # 13
    frequency:   12.6438059980
  - # 14
    frequency:   12.7133636101
  - # 15
    frequency:   13.6421683728

- q-position: [    0.0000000,    0.4081633,    0.0000000 ]
  distance:    0.0923514
  band:
  - # 1
    frequency:   -0.8301613263
  - # 2
    frequency:   -0.8197472091
  - # 3
    frequency:    0.9284040343
  - # 4
    frequency:    1.0424015985
  - # 5
    frequency:    2.4035060320
  - # 6
    frequency:    3.1466034683
  - # 7
    frequency:    3.2338209117
  - # 8
    frequency:    3.2967341253
  - # 9
    frequency:    4.3585529943
  - # 10
    frequency:    4.7703261806
  - # 11
    frequency:    4.8665384652
  - # 12
    frequency:   10.1407092396
  - # 13
    frequency:   12.6435827102
  - # 14
    frequency:   12.7079143406
  - # 15
    frequency:   13.6179148704

- q-position: [    0.0000000,    0.4183673,    0.0000000 ]
  distance:    0.0946602
  band:
  - # 1
    frequency:   -0.8138282963
  - # 2
    frequency:   -0.8117625299
  - # 3
    frequency:    0.9243210037
  - # 4
    frequency:    1.0302814326
  - # 5
    frequency:    2.4077519796
  - # 6
    frequency:    3.1829968509
  - # 7
    frequency:    3.2537880814
  - # 8
    frequency:    3.3183359308
  - # 9