nqpoint: 450    
npath: 9      
segment_nqpoint:
- 50
- 50
- 50
- 50
- 50
- 50
- 50
- 50
- 50
labels:
- [ '$\mathrm{\mathsf{\Gamma}}$', '$\mathrm{\mathsf{X}}$' ]
- [ '$\mathrm{\mathsf{X}}$', '$\mathrm{\mathsf{S}}$' ]
- [ '$\mathrm{\mathsf{S}}$', '$\mathrm{\mathsf{Y}}$' ]
- [ '$\mathrm{\mathsf{Y}}$', '$\mathrm{\mathsf{\Gamma}}$' ]
- [ '$\mathrm{\mathsf{\Gamma}}$', '$\mathrm{\mathsf{Z}}$' ]
- [ '$\mathrm{\mathsf{Z}}$', '$\mathrm{\mathsf{U}}$' ]
- [ '$\mathrm{\mathsf{U}}$', '$\mathrm{\mathsf{R}}$' ]
- [ '$\mathrm{\mathsf{R}}$', '$\mathrm{\mathsf{T}}$' ]
- [ '$\mathrm{\mathsf{T}}$', '$\mathrm{\mathsf{Z}}$' ]
reciprocal_lattice:
- [   0.16064565,   0.00000000,   0.00000000 ] # a*
- [   0.00000000,   0.11506280,   0.00000000 ] # b*
- [   0.00000000,   0.00000000,   0.16350704 ] # c*
natom: 20     
lattice:
- [     6.224880500000000,     0.000000000000000,     0.000000000000000 ] # a
- [     0.000000000000000,     8.690906040000000,     0.000000000000000 ] # b
- [     0.000000000000000,     0.000000000000000,     6.115944530000000 ] # c
points:
- symbol: Ca # 1
  coordinates: [  0.000000000000000,  0.000000000000000,  0.000000000000000 ]
  mass: 40.078000
- symbol: Ca # 2
  coordinates: [  0.500000000000000,  0.000000000000000,  0.500000000817535 ]
  mass: 40.078000
- symbol: Ca # 3
  coordinates: [  0.000000000000000,  0.500000000000000,  0.000000000000000 ]
  mass: 40.078000
- symbol: Ca # 4
  coordinates: [  0.500000000000000,  0.500000000000000,  0.500000000817535 ]
  mass: 40.078000
- symbol: F  # 5
  coordinates: [  0.969343528763323,  0.250000000000000,  0.914737506620257 ]
  mass: 18.998403
- symbol: F  # 6
  coordinates: [  0.530656471236677,  0.750000000000000,  0.414737507437792 ]
  mass: 18.998403
- symbol: F  # 7
  coordinates: [  0.030656471236677,  0.750000000000000,  0.085262493379743 ]
  mass: 18.998403
- symbol: F  # 8
  coordinates: [  0.469343528763323,  0.250000000000000,  0.585262492562208 ]
  mass: 18.998403
- symbol: F  # 9
  coordinates: [  0.289814440614563,  0.454395946961590,  0.208781934456165 ]
  mass: 18.998403
- symbol: F  # 10
  coordinates: [  0.210185559385437,  0.545604051887782,  0.708781935273700 ]
  mass: 18.998403
- symbol: F  # 11
  coordinates: [  0.710185559385437,  0.954395946961590,  0.791218065543835 ]
  mass: 18.998403
- symbol: F  # 12
  coordinates: [  0.789814440614563,  0.045604053038410,  0.291218064726300 ]
  mass: 18.998403
- symbol: F  # 13
  coordinates: [  0.710185559385437,  0.545604051887782,  0.791218065543835 ]
  mass: 18.998403
- symbol: F  # 14
  coordinates: [  0.789814440614563,  0.454395946961590,  0.291218064726300 ]
  mass: 18.998403
- symbol: F  # 15
  coordinates: [  0.289814440614563,  0.045604053038410,  0.208781934456165 ]
  mass: 18.998403
- symbol: F  # 16
  coordinates: [  0.210185559385437,  0.954395946961590,  0.708781935273700 ]
  mass: 18.998403
- symbol: K  # 17
  coordinates: [  0.040450765279751,  0.250000000000000,  0.489315147532903 ]
  mass: 39.098300
- symbol: K  # 18
  coordinates: [  0.459549234720249,  0.750000000000000,  0.989315148350438 ]
  mass: 39.098300
- symbol: K  # 19
  coordinates: [  0.959549234720249,  0.750000000000000,  0.510684852467097 ]
  mass: 39.098300
- symbol: K  # 20
  coordinates: [  0.540450765279751,  0.250000000000000,  0.010684851649562 ]
  mass: 39.098300
supercell_matrix:
- [    4,    0,    0 ]
- [    0,    4,    0 ]
- [    0,    0,    4 ]

phonon:
- q-position: [    0.0000000,    0.0000000,    0.0000000 ]
  distance:    0.0000000
  band:
  - # 1
    frequency:   -0.0015757082
  - # 2
    frequency:   -0.0014496107
  - # 3
    frequency:   -0.0013455703
  - # 4
    frequency:    1.7451384647
  - # 5
    frequency:    1.8130924513
  - # 6
    frequency:    1.8946543224
  - # 7
    frequency:    2.3324701441
  - # 8
    frequency:    2.6967602656
  - # 9
    frequency:    2.7764762864
  - # 10
    frequency:    2.8086952296
  - # 11
    frequency:    2.8141926015
  - # 12
    frequency:    2.9297195512
  - # 13
    frequency:    3.0032057623
  - # 14
    frequency:    3.0970267887
  - # 15
    frequency:    3.1725985904
  - # 16
    frequency:    3.3470669492
  - # 17
    frequency:    3.5299749517
  - # 18
    frequency:    3.6908229419
  - # 19
    frequency:    3.7433448245
  - # 20
    frequency:    3.8061286596
  - # 21
    frequency:    3.9414087305
  - # 22
    frequency:    3.9786860829
  - # 23
    frequency:    4.0918487886
  - # 24
    frequency:    4.2195588252
  - # 25
    frequency:    4.4174104260
  - # 26
    frequency:    4.6250724482
  - # 27
    frequency:    4.6902996754
  - # 28
    frequency:    4.9535772961
  - # 29
    frequency:    5.0896019883
  - # 30
    frequency:    5.3454145237
  - # 31
    frequency:    5.4254358069
  - # 32
    frequency:    5.5112085452
  - # 33
    frequency:    5.6407121397
  - # 34
    frequency:    5.6654261236
  - # 35
    frequency:    5.7321547716
  - # 36
    frequency:    5.7380663035
  - # 37
    frequency:    5.9398444779
  - # 38
    frequency:    6.3068414687
  - # 39
    frequency:    6.4257110325
  - # 40
    frequency:    6.5372227295
  - # 41
    frequency:    6.6797686203
  - # 42
    frequency:    7.3406137848
  - # 43
    frequency:    8.5862828851
  - # 44
    frequency:    8.6437471654
  - # 45
    frequency:    8.7150434013
  - # 46
    frequency:    9.4011138044
  - # 47
    frequency:    9.4214849905
  - # 48
    frequency:   10.0032238145
  - # 49
    frequency:   10.0443027703
  - # 50
    frequency:   10.0443643713
  - # 51
    frequency:   10.7962320971
  - # 52
    frequency:   10.8893976301
  - # 53
    frequency:   11.0143654744
  - # 54
    frequency:   11.0515131731
  - # 55
    frequency:   11.0874281253
  - # 56
    frequency:   11.1107895452
  - # 57
    frequency:   11.1842592976
  - # 58
    frequency:   12.1366081458
  - # 59
    frequency:   12.6430053142
  - # 60
    frequency:   13.0314189908

- q-position: [    0.0000000,    0.0000000,    0.0102041 ]
  distance:    0.0016684
  band:
  - # 1
    frequency:    0.0407959681
  - # 2
    frequency:    0.0547767103
  - # 3
    frequency:    0.0987931127
  - # 4
    frequency:    1.7450775899
  - # 5
    frequency:    1.8142365300
  - # 6
    frequency:    1.8950041827
  - # 7
    frequency:    2.3321761057
  - # 8
    frequency:    2.6958176292
  - # 9
    frequency:    2.7767395725
  - # 10
    frequency:    2.8085438470
  - # 11
    frequency:    2.8147390850
  - # 12
    frequency:    2.9275516042
  - # 13
    frequency:    3.0035594679
  - # 14
    frequency:    3.0998470906
  - # 15
    frequency:    3.1708732034
  - # 16
    frequency:    3.3439827851
  - # 17
    frequency:    3.5305495103
  - # 18
    frequency:    3.6904058741
  - # 19
    frequency:    3.7442461060
  - # 20
    frequency:    3.8055709462
  - # 21
    frequency:    3.9435923649
  - # 22
    frequency:    3.9790329464
  - # 23
    frequency:    4.0903581119
  - # 24
    frequency:    4.2192192297
  - # 25
    frequency:    4.4164388021
  - # 26
    frequency:    4.6266048328
  - # 27
    frequency:    4.6898013426
  - # 28
    frequency:    4.9516733436
  - # 29
    frequency:    5.0912813571
  - # 30
    frequency:    5.3454807894
  - # 31
    frequency:    5.4261220555
  - # 32
    frequency:    5.5120399818
  - # 33
    frequency:    5.6435671493
  - # 34
    frequency:    5.6656689167
  - # 35
    frequency:    5.7317906112
  - # 36
    frequency:    5.7383107688
  - # 37
    frequency:    5.9395566519
  - # 38
    frequency:    6.3085409745
  - # 39
    frequency:    6.4254585052
  - # 40
    frequency:    6.5371386916
  - # 41
    frequency:    6.6802248847
  - # 42
    frequency:    7.3386270727
  - # 43
    frequency:    8.5865195765
  - # 44
    frequency:    8.6421800564
  - # 45
    frequency:    8.7141429486
  - # 46
    frequency:    9.4015830881
  - # 47
    frequency:    9.4197907376
  - # 48
    frequency:   10.0041023142
  - # 49
    frequency:   10.0446282175
  - # 50
    frequency:   10.0455719595
  - # 51
    frequency:   10.7955007260
  - # 52
    frequency:   10.8893089893
  - # 53
    frequency:   11.0141423141
  - # 54
    frequency:   11.0512020888
  - # 55
    frequency:   11.0870476999
  - # 56
    frequency:   11.1124779198
  - # 57
    frequency:   11.1842263865
  - # 58
    frequency:   12.1376120156
  - # 59
    frequency:   12.6451889810
  - # 60
    frequency:   13.0317794275

- q-position: [    0.0000000,    0.0000000,    0.0204082 ]
  distance:    0.0033369
  band:
  - # 1
    frequency:    0.0816211425
  - # 2
    frequency:    0.1095373032
  - # 3
    frequency:    0.1975280201
  - # 4
    frequency:    1.7449232442
  - # 5
    frequency:    1.8176506092
  - # 6
    frequency:    1.8960487865
  - # 7
    frequency:    2.3313081283
  - # 8
    frequency:    2.6930682570
  - # 9
    frequency:    2.7774561549
  - # 10
    frequency:    2.8080903671
  - # 11
    frequency:    2.8162834600
  - # 12
    frequency:    2.9215479511
  - # 13
    frequency:    3.0046048196
  - # 14
    frequency:    3.1078305999
  - # 15
    frequency:    3.1657492510
  - # 16
    frequency:    3.3349616250
  - # 17
    frequency:    3.5322708739
  - # 18
    frequency:    3.6891518815
  - # 19
    frequency:    3.7467586963
  - # 20
    frequency:    3.8039326687
  - # 21
    frequency:    3.9501121839
  - # 22
    frequency:    3.9800399306
  - # 23
    frequency:    4.0859921661
  - # 24
    frequency:    4.2179181047
  - # 25
    frequency:    4.4137908500
  - # 26
    frequency:    4.6311810700
  - # 27
    frequency:    4.6883076990
  - # 28
    frequency:    4.9462369741
  - # 29
    frequency:    5.0961309815
  - # 30
    frequency:    5.3456807066
  - # 31
    frequency:    5.4281662392
  - # 32
    frequency:    5.5145303605
  - # 33
    frequency:    5.6519304287
  - # 34
    frequency:    5.6663932884
  - # 35
    frequency:    5.7307007657
  - # 36
    frequency:    5.7390470702
  - # 37
    frequency:    5.9386944729
  - # 38
    frequency:    6.3136688028
  - # 39
    frequency:    6.4247020848
  - # 40
    frequency:    6.5368862020
  - # 41
    frequency:    6.6815917832
  - # 42
    frequency:    7.3327146857
  - # 43
    frequency:    8.5872246885
  - # 44
    frequency:    8.6374928205
  - # 45
    frequency:    8.7114455625
  - # 46
    frequency:    9.4029662870
  - # 47
    frequency:    9.4147594765
  - # 48
    frequency:   10.0067246330
  - # 49
    frequency:   10.0454171173
  - # 50
    frequency:   10.0493357604
  - # 51
    frequency:   10.7933124773
  - # 52
    frequency:   10.8890431450
  - # 53
    frequency:   11.0134761243
  - # 54
    frequency:   11.0502281273
  - # 55
    frequency:   11.0859552013
  - # 56
    frequency:   11.1175398756
  - # 57
    frequency:   11.1841276901
  - # 58
    frequency:   12.1406144307
  - # 59
    frequency:   12.6517148122
  - # 60
    frequency:   13.0328579594

- q-position: [    0.0000000,    0.0000000,    0.0306122 ]
  distance:    0.0050053
  band:
  - # 1
    frequency:    0.1224307713
  - # 2
    frequency:    0.1641901099
  - # 3
    frequency:    0.2961078572
  - # 4
    frequency:    1.7447587135
  - # 5
    frequency:    1.8232801606
  - # 6
    frequency:    1.8977733162
  - # 7
    frequency:    2.3299086014
  - # 8
    frequency:    2.6887205841
  - # 9
    frequency:    2.7783999399
  - # 10
    frequency:    2.8073367891
  - # 11
    frequency:    2.8185654899
  - # 12
    frequency:    2.9129078826
  - # 13
    frequency:    3.0062939112
  - # 14
    frequency:    3.1198551743
  - # 15
    frequency:    3.1573833610
  - # 16
    frequency:    3.3206265257
  - # 17
    frequency:    3.5351320382
  - # 18
    frequency:    3.6870531062
  - # 19
    frequency:    3.7503990894
  - # 20
    frequency:    3.8013108765
  - # 21
    frequency:    3.9608566423
  - # 22
    frequency:    3.9816142396
  - # 23
    frequency:    4.0790245694
  - # 24
    frequency:    4.2148785302
  - # 25
    frequency:    4.4102347342
  - # 26
    frequency:    4.6387393194
  - # 27
    frequency:    4.6858228322
  - # 28
    frequency:    4.9379497551
  - # 29
    frequency:    5.1037053570
  - # 30
    frequency:    5.3460176397
  - # 31
    frequency:    5.4315244808
  - # 32
    frequency:    5.5186675559
  - # 33
    frequency:    5.6652320735
  - # 34
    frequency:    5.6675874296
  - # 35
    frequency:    5.7288931020
  - # 36
    frequency:    5.7402842084
  - # 37
    frequency:    5.9372621796
  - # 38
    frequency:    6.3223088476
  - # 39
    frequency:    6.4234453749
  - # 40
    frequency:    6.5364641563
  - # 41
    frequency:    6.6838642350
  - # 42
    frequency:    7.3230177143
  - # 43
    frequency:    8.5883830988
  - # 44
    frequency:    8.6297270150
  - # 45
    frequency:    8.7069630545
  - # 46
    frequency:    9.4051911156
  - # 47
    frequency:    9.4065396197
  - # 48
    frequency:   10.0110519448
  - # 49
    frequency:   10.0467232476
  - # 50
    frequency:   10.0554691005
  - # 51
    frequency:   10.7896845931
  - # 52
    frequency:   10.8886003299
  - # 53
    frequency:   11.0123766000
  - # 54
    frequency:   11.0484705109
  - # 55
    frequency:   11.0842952304
  - # 56
    frequency:   11.1259659215
  - # 57
    frequency:   11.1839633186
  - # 58
    frequency:   12.1455882001
  - # 59
    frequency:   12.6625080771
  - # 60
    frequency:   13.0346462777

- q-position: [    0.0000000,    0.0000000,    0.0408163 ]
  distance:    0.0066738
  band:
  - # 1
    frequency:    0.1632263175
  - # 2
    frequency:    0.2186906092
  - # 3
    frequency:    0.3944512016
  - # 4
    frequency:    1.7447179649
  - # 5
    frequency:    1.8310340764
  - # 6
    frequency:    1.9001534541
  - # 7
    frequency:    2.3280481529
  - # 8
    frequency:    2.6830514683
  - # 9
    frequency:    2.7791750926
  - # 10
    frequency:    2.8062864315
  - # 11
    frequency:    2.8212144158
  - # 12
    frequency:    2.9030142832
  - # 13
    frequency:    3.0085444662
  - # 14
    frequency:    3.1346936041
  - # 15
    frequency:    3.1460372081
  - # 16
    frequency:    3.3018280450
  - # 17
    frequency:    3.5391211038
  - # 18
    frequency:    3.6840980823
  - # 19
    frequency:    3.7545953357
  - # 20
    frequency:    3.7978454309
  - # 21
    frequency:    3.9755975646
  - # 22
    frequency:    3.9836244999
  - # 23
    frequency:    4.0697970024
  - # 24
    frequency:    4.2090349138
  - # 25
    frequency:    4.4069130071
  - # 26
    frequency:    4.6491795044
  - # 27
    frequency:    4.6823536323
  - # 28
    frequency:    4.9276185803
  - # 29
    frequency:    5.1135204310
  - # 30
    frequency:    5.3464972093
  - # 31
    frequency:    5.4361229548
  - # 32
    frequency:    5.5244302244
  - # 33
    frequency:    5.6692324128
  - # 34
    frequency:    5.6826267976
  - # 35
    frequency:    5.7263806007
  - # 36
    frequency:    5.7420381653
  - # 37
    frequency:    5.9352679838
  - # 38
    frequency:    6.3345870582
  - # 39
    frequency:    6.4216947811
  - # 40
    frequency:    6.5358707911
  - # 41
    frequency:    6.6870358874
  - # 42
    frequency:    7.3097643350
  - # 43
    frequency:    8.5899688057
  - # 44
    frequency:    8.6189496066
  - # 45
    frequency:    8.7007147667
  - # 46
    frequency:    9.3953601928
  - # 47
    frequency:    9.4081424487
  - # 48
    frequency:   10.0170218329
  - # 49
    frequency:   10.0485338781
  - # 50
    frequency:   10.0637823581
  - # 51
    frequency:   10.7846446771
  - # 52
    frequency:   10.8879809250
  - # 53
    frequency:   11.0108593297
  - # 54
    frequency:   11.0457395951
  - # 55
    frequency:   11.0822958943
  - # 56
    frequency:   11.1377402785
  - # 57
    frequency:   11.1837334502
  - # 58
    frequency:   12.1524892678
  - # 59
    frequency:   12.6774467444
  - # 60
    frequency:   13.0371306182

- q-position: [    0.0000000,    0.0000000,    0.0510204 ]
  distance:    0.0083422
  band:
  - # 1
    frequency:    0.2040047873
  - # 2
    frequency:    0.2729896602
  - # 3
    frequency:    0.4924636891
  - # 4
    frequency:    1.7449794657
  - # 5
    frequency:    1.8407842123
  - # 6
    frequency:    1.9031559369
  - # 7
    frequency:    2.3258258045
  - # 8
    frequency:    2.6763476044
  - # 9
    frequency:    2.7792006474
  - # 10
    frequency:    2.8049439125
  - # 11
    frequency:    2.8237952807
  - # 12
    frequency:    2.8931694156
  - # 13
    frequency:    3.0112346272
  - # 14
    frequency:    3.1320804823
  - # 15
    frequency:    3.1513044387
  - # 16
    frequency:    3.2794819013
  - # 17
    frequency:    3.5442209439
  - # 18
    frequency:    3.6802739370
  - # 19
    frequency:    3.7588723547
  - # 20
    frequency:    3.7936952502
  - # 21
    frequency:    3.9859259546
  - # 22
    frequency:    3.9939742351
  - # 23
    frequency:    4.0586259867
  - # 24
    frequency:    4.1993646652
  - # 25
    frequency:    4.4050732429
  - # 26
    frequency:    4.6623676446
  - # 27
    frequency:    4.6779099087
  - # 28
    frequency:    4.9159779222
  - # 29
    frequency:    5.1251800433
  - # 30
    frequency:    5.3471273086
  - # 31
    frequency:    5.4418566367
  - # 32
    frequency:    5.5317859973
  - # 33
    frequency:    5.6713034805
  - # 34
    frequency:    5.7031136535
  - # 35
    frequency:    5.7231811661
  - # 36
    frequency:    5.7443334874
  - # 37
    frequency:    5.9327258222
  - # 38
    frequency:    6.3506494654
  - # 39
    frequency:    6.4194601121
  - # 40
    frequency:    6.5351037971
  - # 41
    frequency:    6.6911026861
  - # 42
    frequency:    7.2932600437
  - # 43
    frequency:    8.5919436940
  - # 44
    frequency:    8.6052498133
  - # 45
    frequency:    8.6927270788
  - # 46
    frequency:    9.3815091328
  - # 47
    frequency:    9.4116696288
  - # 48
    frequency:   10.0245514443
  - # 49
    frequency:   10.0508318119
  - # 50
    frequency:   10.0740438690
  - # 51
    frequency:   10.7782291225
  - # 52
    frequency:   10.8871854496
  - # 53
    frequency:   11.0089450151
  - # 54
    frequency:   11.0418144293
  - # 55
    frequency:   11.0802295241
  - # 56
    frequency:   11.1528409319
  - # 57
    frequency:   11.1834383252
  - # 58
    frequency:   12.1612584646
  - # 59
    frequency:   12.6963650356
  - # 60
    frequency:   13.0402918861

- q-position: [    0.0000000,    0.0000000,    0.0612245 ]
  distance:    0.0100106
  band:
  - # 1
    frequency:    0.2447624190
  - # 2
    frequency:    0.3270372502
  - # 3
    frequency:    0.5900346410
  - # 4
    frequency:    1.7457595093
  - # 5
    frequency:    1.8523645343
  - # 6
    frequency:    1.9067393054
  - # 7
    frequency:    2.3233695265
  - # 8
    frequency:    2.6688704012
  - # 9
    frequency:    2.7777387261
  - # 10
    frequency:    2.8033151235
  - # 11
    frequency:    2.8258254710
  - # 12
    frequency:    2.8845438291
  - # 13
    frequency:    3.0141917035
  - # 14
    frequency:    3.1159984010
  - # 15
    frequency:    3.1688689881
  - # 16
    frequency:    3.2544709160
  - # 17
    frequency:    3.5504087462
  - # 18
    frequency:    3.6755690002
  - # 19
    frequency:    3.7629378120
  - # 20
    frequency:    3.7890173141
  - # 21
    frequency:    3.9883824889
  - # 22
    frequency:    4.0155191723
  - # 23
    frequency:    4.0457451230
  - # 24
    frequency:    4.1852741229
  - # 25
    frequency:    4.4057025701
  - # 26
    frequency:    4.6725045511
  - # 27
    frequency:    4.6781415542
  - # 28
    frequency:    4.9036187851
  - # 29
    frequency:    5.1383920419
  - # 30
    frequency:    5.3479181199
  - # 31
    frequency:    5.4485871519
  - # 32
    frequency:    5.5406887288
  - # 33
    frequency:    5.6737721814
  - # 34
    frequency:    5.7193173745
  - # 35
    frequency:    5.7256532329
  - # 36
    frequency:    5.7472057420
  - # 37
    frequency:    5.9296578483
  - # 38
    frequency:    6.3706299848
  - # 39
    frequency:    6.4167554243
  - # 40
    frequency:    6.5341604724
  - # 41
    frequency:    6.6960688343
  - # 42
    frequency:    7.2738752239
  - # 43
    frequency:    8.5887351971
  - # 44
    frequency:    8.5942557336
  - # 45
    frequency:    8.6830327576
  - # 46
    frequency:    9.3653116551
  - # 47
    frequency:    9.4155954166
  - # 48
    frequency:   10.0335413939
  - # 49
    frequency:   10.0535959635
  - # 50
    frequency:   10.0860027882
  - # 51
    frequency:   10.7704811491
  - # 52
    frequency:   10.8862145474
  - # 53
    frequency:   11.0066585078
  - # 54
    frequency:   11.0365107607
  - # 55
    frequency:   11.0783425156
  - # 56
    frequency:   11.1712396912
  - # 57
    frequency:   11.1830782365
  - # 58
    frequency:   12.1718237058
  - # 59
    frequency:   12.7190579875
  - # 60
    frequency:   13.0441058273

- q-position: [    0.0000000,    0.0000000,    0.0714286 ]
  distance:    0.0116791
  band:
  - # 1
    frequency:    0.2854951963
  - # 2
    frequency:    0.3807830019
  - # 3
    frequency:    0.6870305134
  - # 4
    frequency:    1.7473066929
  - # 5
    frequency:    1.8655697117
  - # 6
    frequency:    1.9108548265
  - # 7
    frequency:    2.3208374323
  - # 8
    frequency:    2.6608433702
  - # 9
    frequency:    2.7740455126
  - # 10
    frequency:    2.8014071987
  - # 11
    frequency:    2.8267625947
  - # 12
    frequency:    2.8780972123
  - # 13
    frequency:    3.0171682985
  - # 14
    frequency:    3.0984049578
  - # 15
    frequency:    3.1867353835
  - # 16
    frequency:    3.2276231338
  - # 17
    frequency:    3.5576554415
  - # 18
    frequency:    3.6699754045
  - # 19
    frequency:    3.7666748753
  - # 20
    frequency:    3.7839522790
  - # 21
    frequency:    3.9908812239
  - # 22
    frequency:    4.0312766536
  - # 23
    frequency:    4.0397137653
  - # 24
    frequency:    4.1668487000
  - # 25
    frequency:    4.4092667880
  - # 26
    frequency:    4.6661537374
  - # 27
    frequency:    4.6963174613
  - # 28
    frequency:    4.8909907258
  - # 29
    frequency:    5.1529388343
  - # 30
    frequency:    5.3488821241
  - # 31
    frequency:    5.4561393532
  - # 32
    frequency:    5.5510745577
  - # 33
    frequency:    5.6766097258
  - # 34
    frequency:    5.7148161743
  - # 35
    frequency:    5.7492649713
  - # 36
    frequency:    5.7507051013
  - # 37
    frequency:    5.9260976468
  - # 38
    frequency:    6.3946083021
  - # 39
    frequency:    6.4136001002
  - # 40
    frequency:    6.5330379101
  - # 41
    frequency:    6.7019565651
  - # 42
    frequency:    7.2520309868
  - # 43
    frequency:    8.5695273958
  - # 44
    frequency:    8.5968365404
  - # 45
    frequency:    8.6716701860
  - # 46
    frequency:    9.3471128116
  - # 47
    frequency:    9.4197256222
  - # 48
    frequency:   10.0438800290
  - # 49
    frequency:   10.0568020396
  - # 50
    frequency:   10.0994082762
  - # 51
    frequency:   10.7614486457
  - # 52
    frequency:   10.8850689697
  - # 53
    frequency:   11.0040277530
  - # 54
    frequency:   11.0297451291
  - # 55
    frequency:   11.0767888443
  - # 56
    frequency:   11.1826535197
  - # 57
    frequency:   11.1929022425
  - # 58
    frequency:   12.1841024334
  - # 59
    frequency:   12.7452866940
  - # 60
    frequency:   13.0485432423

- q-position: [    0.0000000,    0.0000000,    0.0816327 ]
  distance:    0.0133475
  band:
  - # 1
    frequency:    0.3261989599
  - # 2
    frequency:    0.4341762771
  - # 3
    frequency:    0.7832855753
  - # 4
    frequency:    1.7498993690
  - # 5
    frequency:    1.8801530570
  - # 6
    frequency:    1.9154475558
  - # 7
    frequency:    2.3184197769
  - # 8
    frequency:    2.6524527341
  - # 9
    frequency:    2.7676644363
  - # 10
    frequency:    2.7992284798
  - # 11
    frequency:    2.8259774473
  - # 12
    frequency:    2.8743615371
  - # 13
    frequency:    3.0197913766
  - # 14
    frequency:    3.0800586165
  - # 15
    frequency:    3.1997592205
  - # 16
    frequency:    3.2043588843
  - # 17
    frequency:    3.5659250278
  - # 18
    frequency:    3.6634912313
  - # 19
    frequency:    3.7700909933
  - # 20
    frequency:    3.7786171940
  - # 21
    frequency:    3.9933391380
  - # 22
    frequency:    4.0152169866
  - # 23
    frequency:    4.0660457772
  - # 24
    frequency:    4.1448217565
  - # 25
    frequency:    4.4157187571
  - # 26
    frequency:    4.6588771840
  - # 27
    frequency:    4.7166969806
  - # 28
    frequency:    4.8784311687
  - # 29
    frequency:    5.1686459864
  - # 30
    frequency:    5.3500340924
  - # 31
    frequency:    5.4642962380
  - # 32
    frequency:    5.5628564588
  - # 33
    frequency:    5.6797920560
  - # 34
    frequency:    5.7097085539
  - # 35
    frequency:    5.7549013989
  - # 36
    frequency:    5.7730984663
  - # 37
    frequency:    5.9220940493
  - # 38
    frequency:    6.4100201343
  - # 39
    frequency:    6.4225594997
  - # 40
    frequency:    6.5317332163
  - # 41
    frequency:    6.7088224827
  - # 42
    frequency:    7.2281841696
  - # 43
    frequency:    8.5477578616
  - # 44
    frequency:    8.5995982221
  - # 45
    frequency:    8.6586825108
  - # 46
    frequency:    9.3272662274
  - # 47
    frequency:    9.4238585245
  - # 48
    frequency:   10.0554476877
  - # 49
    frequency:   10.0604232862
  - # 50
    frequency:   10.1140231390
  - # 51
    frequency:   10.7511820180
  - # 52
    frequency:   10.8837495537
  - # 53
    frequency:   11.0010827174
  - # 54
    frequency:   11.0215480053
  - # 55
    frequency:   11.0756144970
  - # 56
    frequency:   11.1821645416
  - # 57
    frequency:   11.2177881764
  - # 58
    frequency:   12.1980041089
  - # 59
    frequency:   12.7747838922
  - # 60
    frequency:   13.0535702414

- q-position: [    0.0000000,    0.0000000,    0.0918367 ]
  distance:    0.0150160
  band:
  - # 1
    frequency:    0.3668694275
  - # 2
    frequency:    0.4871661886
  - # 3
    frequency:    0.8785885483
  - # 4
    frequency:    1.7538481089
  - # 5
    frequency:    1.8958238989
  - # 6
    frequency:    1.9204575092
  - # 7
    frequency:    2.3163417026
  - # 8
    frequency:    2.6438533180
  - # 9
    frequency:    2.7586535490
  - # 10
    frequency:    2.7967884800
  - # 11
    frequency:    2.8227353259
  - # 12
    frequency:    2.8732708181
  - # 13
    frequency:    3.0214528767
  - # 14
    frequency:    3.0618659276
  - # 15
    frequency:    3.1718183809
  - # 16
    frequency:    3.2212614058
  - # 17
    frequency:    3.5751738081
  - # 18
    frequency:    3.6561218339
  - # 19
    frequency:    3.7731038876
  - # 20
    frequency:    3.7732642193
  - # 21
    frequency:    3.9957034137
  - # 22
    frequency:    3.9974308229
  - # 23
    frequency:    4.0940491867
  - # 24
    frequency:    4.1203491383
  - # 25
    frequency:    4.4246967773
  - # 26
    frequency:    4.6506984398
  - # 27
    frequency:    4.7390738378
  - # 28
    frequency:    4.8662012465
  - # 29
    frequency:    5.1853613092
  - # 30
    frequency:    5.3513910470
  - # 31
    frequency:    5.4727919518
  - # 32
    frequency:    5.5759169246
  - # 33
    frequency:    5.6833071817
  - # 34
    frequency:    5.7040292012
  - # 35
    frequency:    5.7598910388
  - # 36
    frequency:    5.7964780259
  - # 37
    frequency:    5.9177152422
  - # 38
    frequency:    6.4060495763
  - # 39
    frequency:    6.4542968450
  - # 40
    frequency:    6.5302437520
  - # 41
    frequency:    6.7167858561
  - # 42
    frequency:    7.2028122295
  - # 43
    frequency:    8.5235639056
  - # 44
    frequency:    8.6024294423
  - # 45
    frequency:    8.6441167483
  - # 46
    frequency:    9.3061291508
  - # 47
    frequency:    9.4277933685
  - # 48
    frequency:   10.0644312621
  - # 49
    frequency:   10.0681206549
  - # 50
    frequency:   10.1296318911
  - # 51
    frequency:   10.7397322226
  - # 52
    frequency:   10.8822571996
  - # 53
    frequency:   10.9978543565
  - # 54
    frequency:   11.0120269355
  - # 55
    frequency:   11.0747920223
  - # 56
    frequency:   11.1816116896
  - # 57
    frequency:   11.2458509718
  - # 58
    frequency:   12.2134325920
  - # 59
    frequency:   12.8072595977
  - # 60
    frequency:   13.0591485338

- q-position: [    0.0000000,    0.0000000,    0.1020408 ]
  distance:    0.0166844
  band:
  - # 1
    frequency:    0.4075021805
  - # 2
    frequency:    0.5397015883
  - # 3
    frequency:    0.9726630764
  - # 4
    frequency:    1.7595056241
  - # 5
    frequency:    1.9122448866
  - # 6
    frequency:    1.9258209046
  - # 7
    frequency:    2.3148662278
  - # 8
    frequency:    2.6351753719
  - # 9
    frequency:    2.7474982815
  - # 10
    frequency:    2.7940978463
  - # 11
    frequency:    2.8162237055
  - # 12
    frequency:    2.8742867174
  - # 13
    frequency:    3.0210855775
  - # 14
    frequency:    3.0448398015
  - # 15
    frequency:    3.1451050915
  - # 16
    frequency:    3.2370095064
  - # 17
    frequency:    3.5853495558
  - # 18
    frequency:    3.6478801320
  - # 19
    frequency:    3.7674810805
  - # 20
    frequency:    3.7763046025
  - # 21
    frequency:    3.9776686853
  - # 22
    frequency:    3.9979478680
  - # 23
    frequency:    4.0947672191
  - # 24
    frequency:    4.1233227279
  - # 25
    frequency:    4.4357207885
  - # 26
    frequency:    4.6416452217
  - # 27
    frequency:    4.7632398231
  - # 28
    frequency:    4.8545208442
  - # 29
    frequency:    5.2029434463
  - # 30
    frequency:    5.3529721724
  - # 31
    frequency:    5.4813031164
  - # 32
    frequency:    5.5900985482
  - # 33
    frequency:    5.6871651354
  - # 34
    frequency:    5.6978161768
  - # 35
    frequency:    5.7658060076
  - # 36
    frequency:    5.8189210996
  - # 37
    frequency:    5.9130525538
  - # 38
    frequency:    6.4017320407
  - # 39
    frequency:    6.4894043505
  - # 40
    frequency:    6.5285673925
  - # 41
    frequency:    6.7260793782
  - # 42